                         Program Version 5.0.4 -  RELEASE  -
|  1> !B3LYP DEF2-SVP OPT
|  2> !Pal2
|  3>
|  4> * int 0 1
|  5>    O     0     0     0        0.00000        0.00000        0.00000
|  6>    O     1     0     0        1.35200        0.00000        0.00000
|  7>    O     2     1     0        1.35200        111.400        0.00000
|  8> *
|  9>
| 10>
| 11>                          ****END OF INPUT****
 Total Charge           Charge          ....    0
 Multiplicity           Mult            ....    1
 Number of Electrons    NEL             ....   24
FINAL SINGLE POINT ENERGY      -225.120411262747
FINAL SINGLE POINT ENERGY      -225.137683094954
FINAL SINGLE POINT ENERGY      -225.139505385170
FINAL SINGLE POINT ENERGY      -225.139968067569
FINAL SINGLE POINT ENERGY      -225.139976303414
                    ***********************HURRAY********************

CARTESIAN COORDINATES (ANGSTROEM)
---------------------------------
  O      0.058639   -0.009020    0.000000
  O      1.306358    0.066911    0.000000
  O      1.832317    1.200897    0.000000

 Multiplicity           Mult            ....    1
 Number of Electrons    NEL             ....   24
 Basis Dimension        Dim             ....   42

ORBITAL ENERGIES
----------------

  NO   OCC          E(Eh)            E(eV)
   0   2.0000     -19.425316      -528.5897
   1   2.0000     -19.243388      -523.6392
   2   2.0000     -19.243256      -523.6356
   3   2.0000      -1.368413       -37.2364
   4   2.0000      -1.096210       -29.8294
   5   2.0000      -0.755269       -20.5519
   6   2.0000      -0.609463       -16.5843
   7   2.0000      -0.594210       -16.1693
   8   2.0000      -0.585602       -15.9351
   9   2.0000      -0.362430        -9.8622
  10   2.0000      -0.345424        -9.3995
  11   2.0000      -0.332414        -9.0454
  12   0.0000      -0.180916        -4.9230
  13   0.0000       0.104804         2.8519
  14   0.0000       0.193154         5.2560
  15   0.0000       0.672227        18.2922
  16   0.0000       0.785366        21.3709

MULLIKEN ATOMIC CHARGES
-----------------------
   0 O :   -0.102899
   1 O :    0.205809
   2 O :   -0.102910
Sum of atomic charges:   -0.0000000

LOEWDIN ATOMIC CHARGES
----------------------
   0 O :   -0.138020
   1 O :    0.276047
   2 O :   -0.138026

  Mayer bond orders larger than 0.100000
B(  0-O ,  1-O ) :   1.3230 B(  0-O ,  2-O ) :   0.5157 B(  1-O ,  2-O ) :   1.3230

FINAL SINGLE POINT ENERGY      -225.139976442781

DIPOLE MOMENT
-------------
                                X             Y             Z
Electronic contribution:      0.13996      -0.20516       0.00000
Nuclear contribution   :     -0.00000      -0.00000       0.00000
                        -----------------------------------------
Total Dipole Moment    :      0.13996      -0.20516       0.00000
                        -----------------------------------------
Magnitude (a.u.)       :      0.24835
Magnitude (Debye)      :      0.63126

Rotational constants in cm-1:     3.853906     0.457139     0.408665
Rotational constants in MHz : 115537.200613 13704.696786 12251.462829

                             ****ORCA TERMINATED NORMALLY****
TOTAL RUN TIME: 0 days 0 hours 0 minutes 26 seconds 662 msec
