                         Program Version 5.0.4 -  RELEASE  -
|  1> ! BP def2-SVP def2/J
|  2>
|  3> %paras
|  4> 	R = 118.32108267,40,80
|  5> end
|  6>
|  7> *int 0 1
|  8> 	O      0   0   0     0.000000000000     0.00000000     0.00000000
|  9> 	O      1   0   0     1.250148781330     0.00000000     0.00000000
| 10> 	O      2   1   0     1.250136431439   	{R}    		   0.00000000
| 11> **                         ****END OF INPUT****
 Total Charge           Charge          ....    0
 Multiplicity           Mult            ....    1
 Number of Electrons    NEL             ....   24
 Basis Dimension        Dim             ....   42

ORBITAL ENERGIES
----------------

  NO   OCC          E(Eh)            E(eV)
   0   2.0000     -19.055084      -518.5152
   1   2.0000     -18.878521      -513.7107
   2   2.0000     -18.878401      -513.7074
   3   2.0000      -1.272220       -34.6189
   4   2.0000      -1.013227       -27.5713
   5   2.0000      -0.680176       -18.5085
   6   2.0000      -0.556417       -15.1409
   7   2.0000      -0.530965       -14.4483
   8   2.0000      -0.529675       -14.4132
   9   2.0000      -0.329579        -8.9683
  10   2.0000      -0.287837        -7.8325
  11   2.0000      -0.276703        -7.5295
  12   0.0000      -0.211142        -5.7455
  13   0.0000       0.050545         1.3754
  14   0.0000       0.136866         3.7243
  15   0.0000       0.620791        16.8926
  16   0.0000       0.727760        19.8034

MULLIKEN ATOMIC CHARGES
-----------------------
   0 O :   -0.095886
   1 O :    0.191752
   2 O :   -0.095866
Sum of atomic charges:    0.0000000

LOEWDIN ATOMIC CHARGES
----------------------
   0 O :   -0.132641
   1 O :    0.265264
   2 O :   -0.132623

  Mayer bond orders larger than 0.100000
B(  0-O ,  1-O ) :   1.3235 B(  0-O ,  2-O ) :   0.5527 B(  1-O ,  2-O ) :   1.3235

FINAL SINGLE POINT ENERGY      -225.273742210938
FINAL SINGLE POINT ENERGY      -225.273599840722
FINAL SINGLE POINT ENERGY      -225.273291937763
FINAL SINGLE POINT ENERGY      -225.272812852369
FINAL SINGLE POINT ENERGY      -225.272156696818
FINAL SINGLE POINT ENERGY      -225.271317268924
FINAL SINGLE POINT ENERGY      -225.270288023795
FINAL SINGLE POINT ENERGY      -225.269062073273
FINAL SINGLE POINT ENERGY      -225.267632129958
FINAL SINGLE POINT ENERGY      -225.265990425679
FINAL SINGLE POINT ENERGY      -224.955455120667
FINAL SINGLE POINT ENERGY      -224.921732794516
FINAL SINGLE POINT ENERGY      -224.883260222555
FINAL SINGLE POINT ENERGY      -224.839397660092
FINAL SINGLE POINT ENERGY      -224.789413258548
FINAL SINGLE POINT ENERGY      -224.732473797108
FINAL SINGLE POINT ENERGY      -224.667633551544
FINAL SINGLE POINT ENERGY      -224.593815431765
FINAL SINGLE POINT ENERGY      -224.509787327143

CARTESIAN COORDINATES (ANGSTROEM)
---------------------------------
  O      0.000000    0.000000    0.000000
  O      1.250149    0.000000    0.000000
  O      0.292489    0.803572    0.000000

FINAL SINGLE POINT ENERGY      -224.414141497247

DIPOLE MOMENT
-------------
                                X             Y             Z
Electronic contribution:     -0.15324       0.05578       0.00000
Nuclear contribution   :     -0.00000       0.00000       0.00000
                        -----------------------------------------
Total Dipole Moment    :     -0.15324       0.05578       0.00000
                        -----------------------------------------
Magnitude (a.u.)       :      0.16308
Magnitude (Debye)      :      0.41452

Rotational constants in cm-1:     2.881719     1.145261     0.819552
Rotational constants in MHz : 86391.753152 34334.069207 24569.560792

                             ****ORCA TERMINATED NORMALLY****
TOTAL RUN TIME: 0 days 0 hours 1 minutes 16 seconds 153 msec
