                         Program Version 5.0.4 -  RELEASE  -
|  1> !PM3 OptTS NumFreq
|  2>
|  3>
|  4> *int -1 1
|  5> 	C      0   0   0     0.000000000000     0.00000000     0.00000000
|  6> 	Cl     1   0   0     2.079585242487     0.00000000     0.00000000
|  7> 	H      1   2   0     1.081721867911    96.03923931     0.00000000
|  8> 	H      1   2   3     1.081741782719    96.03225715   239.99909738
|  9> 	H      1   2   3     1.081734493373    96.03564226   120.00574515
| 10> 	F      1   2   3     2.100000027633   179.98926144    28.59469063
| 11> **                         ****END OF INPUT****
 Total Charge           Charge          ....   -1
 Multiplicity           Mult            ....    1
 Number of Electrons    NEL             ....   22
FINAL SINGLE POINT ENERGY       -33.865529214590
FINAL SINGLE POINT ENERGY       -33.864302806494
FINAL SINGLE POINT ENERGY       -33.861535995547
FINAL SINGLE POINT ENERGY       -33.857382558760
FINAL SINGLE POINT ENERGY       -33.852064937180
FINAL SINGLE POINT ENERGY       -33.847372671998
FINAL SINGLE POINT ENERGY       -33.851602068145
FINAL SINGLE POINT ENERGY       -33.852916552856
FINAL SINGLE POINT ENERGY       -33.855823354449
FINAL SINGLE POINT ENERGY       -33.861190986324
FINAL SINGLE POINT ENERGY       -33.861939468825
FINAL SINGLE POINT ENERGY       -33.864609165695
FINAL SINGLE POINT ENERGY       -33.865383412278
FINAL SINGLE POINT ENERGY       -33.865408702759
                    ***********************HURRAY********************

CARTESIAN COORDINATES (ANGSTROEM)
---------------------------------
  C      0.027189    0.000041   -0.000027
  Cl     2.070611   -0.000164    0.000069
  H     -0.119554    1.072624   -0.000066
  H     -0.119815   -0.536160    0.928851
  H     -0.119712   -0.536212   -0.928891
  F     -2.100360    0.000083   -0.000067

 Multiplicity           Mult            ....    1
 Number of Electrons    NEL             ....   22
 Basis Dimension        Dim             ....   15

ORBITAL ENERGIES
----------------

  NO   OCC          E(Eh)            E(eV)
   0   2.0000      -1.851174       -50.3730
   1   2.0000      -0.865356       -23.5475
   2   2.0000      -0.377988       -10.2856
   3   2.0000      -0.377979       -10.2853
   4   2.0000      -0.327984        -8.9249
   5   2.0000      -0.279554        -7.6071
   6   2.0000      -0.233317        -6.3489
   7   2.0000      -0.233317        -6.3489
   8   2.0000      -0.184270        -5.0142
   9   2.0000      -0.184269        -5.0142
  10   2.0000      -0.151857        -4.1322
  11   0.0000       0.179844         4.8938
  12   0.0000       0.289364         7.8740
  13   0.0000       0.324225         8.8226
  14   0.0000       0.324234         8.8229

MULLIKEN ATOMIC CHARGES
-----------------------
   0 C :    0.103102
   1 Cl:   -0.611383
   2 H :    0.118794
   3 H :    0.118833
   4 H :    0.118824
   5 F :   -0.848171
Sum of atomic charges:   -1.0000000

LOEWDIN ATOMIC CHARGES
----------------------
   0 C :    0.308059
   1 Cl:   -0.596226
   2 H :    0.045060
   3 H :    0.045088
   4 H :    0.045081
   5 F :   -0.847063

  Mayer bond orders larger than 0.100000
B(  0-C ,  1-Cl) :   1.2584 B(  0-C ,  2-H ) :   2.8739 B(  0-C ,  3-H ) :   2.8739
B(  0-C ,  4-H ) :   2.8739 B(  0-C ,  5-F ) :   0.3033 B(  2-H ,  3-H ) :   0.1201
B(  2-H ,  4-H ) :   0.1201 B(  3-H ,  4-H ) :   0.1201

FINAL SINGLE POINT ENERGY       -33.865407694246

DIPOLE MOMENT
-------------
                                X             Y             Z
Electronic contribution:     25.76067      -0.00257       0.00115
Nuclear contribution   :    -19.98244       0.00171      -0.00080
                        -----------------------------------------
Total Dipole Moment    :      5.77823      -0.00086       0.00035
                        -----------------------------------------
Magnitude (a.u.)       :      5.77823
Magnitude (Debye)      :     14.68708

VIBRATIONAL FREQUENCIES
-----------------------

Scaling factor for frequencies =  1.000000000 (already applied!)

   0:         0.00 cm**-1
   1:         0.00 cm**-1
   2:         0.00 cm**-1
   3:         0.00 cm**-1
   4:         0.00 cm**-1
   5:         0.00 cm**-1
   6:      -503.24 cm**-1 ***imaginary mode***
   7:       173.44 cm**-1
   8:       173.49 cm**-1
   9:       331.23 cm**-1
  10:       929.01 cm**-1
  11:       929.24 cm**-1
  12:      1074.80 cm**-1
  13:      1269.61 cm**-1
  14:      1270.06 cm**-1
  15:      3107.18 cm**-1
  16:      3187.04 cm**-1
  17:      3187.20 cm**-1

IR SPECTRUM
-----------

 Mode   freq       eps      Int      T**2         TX        TY        TZ
       cm**-1   L/(mol*cm) km/mol    a.u.
----------------------------------------------------------------------------
  7:    173.44   0.113506  573.61  0.204221  (-0.000002 -0.118660  0.436052)
  8:    173.49   0.113607  574.12  0.204345  (-0.000033  0.436215  0.118579)
  9:    331.23   0.000825    4.17  0.000777  ( 0.027876  0.000319 -0.000030)
 10:    929.01   0.002479   12.53  0.000833  ( 0.000144 -0.003258  0.028670)
 11:    929.24   0.002501   12.64  0.000840  ( 0.000513 -0.028793 -0.003250)
 12:   1074.80   0.384440  1942.80  0.111620  ( 0.334096 -0.000002  0.000002)
 13:   1269.61   0.051403  259.77  0.012634  ( 0.000005  0.000217  0.112403)
 14:   1270.06   0.051491  260.21  0.012652  (-0.000069 -0.112480  0.000218)
 15:   3107.18   0.146465  740.17  0.014710  ( 0.121284 -0.000121  0.000009)
 16:   3187.04   0.109647  554.11  0.010736  (-0.000005  0.000600  0.103614)
 17:   3187.20   0.109262  552.17  0.010698  ( 0.000112  0.103429 -0.000603)

--------------------------
THERMOCHEMISTRY AT 298.15K
--------------------------

Temperature         ... 298.15 K
Pressure            ... 1.00 atm
Total Mass          ... 69.49 AMU

Throughout the following assumptions are being made:
  (1) The electronic state is orbitally nondegenerate
  (2) There are no thermally accessible electronically excited states
  (3) Hindered rotations indicated by low frequency modes are not
      treated as such but are treated as vibrations and this may
      cause some error
  (4) All equations used are the standard statistical mechanics
      equations for an ideal gas
  (5) All vibrations are strictly harmonic

freq.     173.44  E(vib)   ...       0.38
freq.     173.49  E(vib)   ...       0.38
freq.     331.23  E(vib)   ...       0.24
freq.     929.01  E(vib)   ...       0.03
freq.     929.24  E(vib)   ...       0.03
freq.    1074.80  E(vib)   ...       0.02
freq.    1269.61  E(vib)   ...       0.01
freq.    1270.06  E(vib)   ...       0.01
freq.    3107.18  E(vib)   ...       0.00
freq.    3187.04  E(vib)   ...       0.00
freq.    3187.20  E(vib)   ...       0.00

------------
INNER ENERGY
------------

The inner energy is: U= E(el) + E(ZPE) + E(vib) + E(rot) + E(trans)
    E(el)   - is the total energy from the electronic structure calculation
              = E(kin-el) + E(nuc-el) + E(el-el) + E(nuc-nuc)
    E(ZPE)  - the the zero temperature vibrational energy from the frequency calculation
    E(vib)  - the the finite temperature correction to E(ZPE) due to population
              of excited vibrational states
    E(rot)  - is the rotational thermal energy
    E(trans)- is the translational thermal energy

Summary of contributions to the inner energy U:
Electronic energy                ...    -33.86540769 Eh
Zero point energy                ...      0.03561304 Eh      22.35 kcal/mol
Thermal vibrational correction   ...      0.00173916 Eh       1.09 kcal/mol
Thermal rotational correction    ...      0.00141627 Eh       0.89 kcal/mol
Thermal translational correction ...      0.00141627 Eh       0.89 kcal/mol
-----------------------------------------------------------------------
Total thermal energy                    -33.82522296 Eh

Summary of corrections to the electronic energy:
(perhaps to be used in another calculation)
Total thermal correction                  0.00457170 Eh       2.87 kcal/mol
Non-thermal (ZPE) correction              0.03561304 Eh      22.35 kcal/mol
-----------------------------------------------------------------------
Total correction                          0.04018474 Eh      25.22 kcal/mol

--------
ENTHALPY
--------

The enthalpy is H = U + kB*T
                kB is Boltzmann's constant
Total free energy                 ...    -33.82522296 Eh
Thermal Enthalpy correction       ...      0.00094421 Eh       0.59 kcal/mol
-----------------------------------------------------------------------
Total Enthalpy                    ...    -33.82427875 Eh

Note: Rotational entropy computed according to Herzberg
Infrared and Raman Spectra, Chapter V,1, Van Nostrand Reinhold, 1945
Point Group:  Cs, Symmetry Number:   1
Rotational constants in cm-1:     4.845927     0.076113     0.076113

Vibrational entropy computed according to the QRRHO of S. Grimme
Chem.Eur.J. 2012 18 9955

-------
ENTROPY
-------

The entropy contributions are T*S = T*(S(el)+S(vib)+S(rot)+S(trans))
     S(el)   - electronic entropy
     S(vib)  - vibrational entropy
     S(rot)  - rotational entropy
     S(trans)- translational entropy
The entropies will be listed as multiplied by the temperature to get
units of energy

Electronic entropy                ...      0.00000000 Eh      0.00 kcal/mol
Vibrational entropy               ...      0.00304786 Eh      1.91 kcal/mol
Rotational entropy                ...      0.01119755 Eh      7.03 kcal/mol
Translational entropy             ...      0.01835566 Eh     11.52 kcal/mol
-----------------------------------------------------------------------
Final entropy term                ...      0.03260107 Eh     20.46 kcal/mol

In case the symmetry of your molecule has not been determined correctly
or in case you have a reason to use a different symmetry number we print
out the resulting rotational entropy values for sn=1,12 :
 --------------------------------------------------------
|  sn= 1 | S(rot)=       0.01119755 Eh      7.03 kcal/mol|
|  sn= 2 | S(rot)=       0.01054310 Eh      6.62 kcal/mol|
|  sn= 3 | S(rot)=       0.01016026 Eh      6.38 kcal/mol|
|  sn= 4 | S(rot)=       0.00988864 Eh      6.21 kcal/mol|
|  sn= 5 | S(rot)=       0.00967795 Eh      6.07 kcal/mol|
|  sn= 6 | S(rot)=       0.00950581 Eh      5.96 kcal/mol|
|  sn= 7 | S(rot)=       0.00936026 Eh      5.87 kcal/mol|
|  sn= 8 | S(rot)=       0.00923418 Eh      5.79 kcal/mol|
|  sn= 9 | S(rot)=       0.00912298 Eh      5.72 kcal/mol|
|  sn=10 | S(rot)=       0.00902350 Eh      5.66 kcal/mol|
|  sn=11 | S(rot)=       0.00893351 Eh      5.61 kcal/mol|
|  sn=12 | S(rot)=       0.00885135 Eh      5.55 kcal/mol|
 --------------------------------------------------------

-------------------
GIBBS FREE ENERGY
-------------------

The Gibbs free energy is G = H - T*S

Total enthalpy                    ...    -33.82427875 Eh
Total entropy correction          ...     -0.03260107 Eh    -20.46 kcal/mol
-----------------------------------------------------------------------
Final Gibbs free energy         ...    -33.85687982 Eh

For completeness - the Gibbs free energy minus the electronic energy
G-E(el)                           ...      0.00852787 Eh      5.35 kcal/mol

                             ****ORCA TERMINATED NORMALLY****
TOTAL RUN TIME: 0 days 0 hours 1 minutes 29 seconds 292 msec
