                         Program Version 5.0.4 -  RELEASE  -
|  1> !PM3 Opt
|  2>
|  3>
|  4> %geom scan
|  5> 	 B 7 9 = 2.544 , 0.7 , 30
|  6> end
|  7> end
|  8>
|  9> *int 0 1
| 10>    C     0     0     0        0.00000        0.00000        0.00000
| 11>    C     1     0     0        1.52458        0.00000        0.00000
| 12>    H     1     2     0        1.11081      110.53781        0.00000
| 13>    H     1     2     3        1.10545      109.83648      238.86890
| 14>    H     1     2     3        1.11084      110.59188      117.70663
| 15>    C     2     1     3        1.52459      116.32806      301.02006
| 16>    H     6     2     1        1.11088      110.54692      300.76195
| 17>    H     6     2     1        1.10546      109.83506      179.67306
| 18>    H     6     2     1        1.11080      110.60741       58.47703
| 19>    O     2     1     3        1.22101      121.83952      121.02645
| 20> *
| 21>
| 22>                          ****END OF INPUT****
 Total Charge           Charge          ....    0
 Multiplicity           Mult            ....    1
 Number of Electrons    NEL             ....   24
FINAL SINGLE POINT ENERGY       -27.271933666642
FINAL SINGLE POINT ENERGY       -27.273456764547
FINAL SINGLE POINT ENERGY       -27.273607478799
FINAL SINGLE POINT ENERGY       -27.273669246335
FINAL SINGLE POINT ENERGY       -27.273670299523
                    ***********************HURRAY********************
FINAL SINGLE POINT ENERGY       -27.273670284264
FINAL SINGLE POINT ENERGY       -27.273110340502
FINAL SINGLE POINT ENERGY       -27.273208378568
FINAL SINGLE POINT ENERGY       -27.273212361843
                    ***********************HURRAY********************
FINAL SINGLE POINT ENERGY       -27.273212710649
FINAL SINGLE POINT ENERGY       -27.207583150049
FINAL SINGLE POINT ENERGY       -27.207649694669
FINAL SINGLE POINT ENERGY       -27.207659660185
FINAL SINGLE POINT ENERGY       -27.207661685842
FINAL SINGLE POINT ENERGY       -27.207661754142
FINAL SINGLE POINT ENERGY       -27.163936380968
FINAL SINGLE POINT ENERGY       -27.164020542638
FINAL SINGLE POINT ENERGY       -27.164034766960
FINAL SINGLE POINT ENERGY       -27.164038293197

CARTESIAN COORDINATES (ANGSTROEM)
---------------------------------
  C      0.006264    0.001474    0.002550
  C      1.495366   -0.002168   -0.003772
  H     -0.386753    1.027274    0.004314
  H     -0.387050   -0.504574    0.894696
  H     -0.395621   -0.511574   -0.880335
  C      2.254112   -0.553144   -0.959572
  H      1.818692   -1.049418   -1.820331
  H      2.712630    0.644534    1.117330
  H      3.339633   -0.546226   -0.947752
  O      2.012779    0.637052    1.104975

 Multiplicity           Mult            ....    1
 Number of Electrons    NEL             ....   24
 Basis Dimension        Dim             ....   22

ORBITAL ENERGIES
----------------

  NO   OCC          E(Eh)            E(eV)
   0   2.0000      -1.519366       -41.3441
   1   2.0000      -1.218340       -33.1527
   2   2.0000      -0.999081       -27.1864
   3   2.0000      -0.763617       -20.7791
   4   2.0000      -0.643471       -17.5097
   5   2.0000      -0.603885       -16.4326
   6   2.0000      -0.555622       -15.1192
   7   2.0000      -0.509003       -13.8507
   8   2.0000      -0.492023       -13.3886
   9   2.0000      -0.480026       -13.0622
  10   2.0000      -0.476409       -12.9638
  11   2.0000      -0.351542        -9.5659
  12   0.0000       0.040748         1.1088
  13   0.0000       0.108206         2.9444
  14   0.0000       0.133613         3.6358
  15   0.0000       0.145037         3.9467
  16   0.0000       0.156794         4.2666

MULLIKEN ATOMIC CHARGES
-----------------------
   0 C :   -0.276887
   1 C :    0.039274
   2 H :    0.125936
   3 H :    0.126013
   4 H :    0.118404
   5 C :   -0.480525
   6 H :    0.191783
   7 H :    0.240279
   8 H :    0.181077
   9 O :   -0.265353
Sum of atomic charges:    0.0000000

LOEWDIN ATOMIC CHARGES
----------------------
   0 C :   -0.069518
   1 C :    0.064973
   2 H :    0.055862
   3 H :    0.055920
   4 H :    0.049448
   5 C :   -0.303921
   6 H :    0.102875
   7 H :    0.195554
   8 H :    0.096197
   9 O :   -0.247388

  Mayer bond orders larger than 0.100000
B(  0-C ,  1-C ) :   2.9381 B(  0-C ,  2-H ) :   2.8821 B(  0-C ,  3-H ) :   2.8822
B(  0-C ,  4-H ) :   2.8820 B(  1-C ,  2-H ) :   0.1370 B(  1-C ,  3-H ) :   0.1368
B(  1-C ,  4-H ) :   0.1321 B(  1-C ,  5-C ) :   4.4977 B(  1-C ,  6-H ) :   0.1267
B(  1-C ,  7-H ) :   0.1869 B(  1-C ,  8-H ) :   0.1143 B(  1-C ,  9-O ) :   2.2100
B(  2-H ,  3-H ) :   0.1927 B(  2-H ,  4-H ) :   0.1845 B(  3-H ,  4-H ) :   0.1845
B(  5-C ,  6-H ) :   2.8600 B(  5-C ,  8-H ) :   2.8697 B(  6-H ,  8-H ) :   0.1469
B(  7-H ,  9-O ) :   2.2545

FINAL SINGLE POINT ENERGY       -27.164038416679

DIPOLE MOMENT
-------------
                                X             Y             Z
Electronic contribution:      6.32788       4.34829       7.54481
Nuclear contribution   :     -1.77179      -0.76406      -1.32682
                        -----------------------------------------
Total Dipole Moment    :      4.55609       3.58423       6.21799
                        -----------------------------------------
Magnitude (a.u.)       :      8.50106
Magnitude (Debye)      :     21.60798

Rotational constants in cm-1:     0.332205     0.305866     0.164153
Rotational constants in MHz :  9959.248290  9169.637300  4921.181822

                             ****ORCA TERMINATED NORMALLY****
TOTAL RUN TIME: 0 days 0 hours 1 minutes 10 seconds 465 msec
