                         Program Version 5.0.4 -  RELEASE  -
|  1> ! BP RI OPT def2-SVP def2/J
|  2> !PAL2
|  3>
|  4>
|  5> * int 0 1
|  6>    C     0     0     0        0.00000        0.00000        0.00000
|  7>    C     1     0     0        1.50479        0.00000        0.00000
|  8>    H     1     2     0        1.09263      109.55055        0.00000
|  9>    H     1     2     3        1.09352      109.69698      240.27351
| 10>    H     1     2     3        1.09287      109.63800      121.04046
| 11>    C     2     1     3        1.50479      116.74717      295.06697
| 12>    H     6     2     1        1.09287      109.62996      303.38780
| 13>    H     6     2     1        1.09352      109.69867      184.14068
| 14>    H     6     2     1        1.09264      109.55637       64.43098
| 15>    O     2     1     3        1.23006      121.61872      113.72179
| 16> *
| 17>
| 18>
| 19>                          ****END OF INPUT****
 Total Charge           Charge          ....    0
 Multiplicity           Mult            ....    1
 Number of Electrons    NEL             ....   32
FINAL SINGLE POINT ENERGY      -193.009467435188
FINAL SINGLE POINT ENERGY      -193.011256650832
FINAL SINGLE POINT ENERGY      -193.011493295145
FINAL SINGLE POINT ENERGY      -193.011543748634
FINAL SINGLE POINT ENERGY      -193.011577299867
FINAL SINGLE POINT ENERGY      -193.011583747894
FINAL SINGLE POINT ENERGY      -193.011589046437
FINAL SINGLE POINT ENERGY      -193.011593168645
FINAL SINGLE POINT ENERGY      -193.011596985017
FINAL SINGLE POINT ENERGY      -193.011598784081
                    ***********************HURRAY********************

CARTESIAN COORDINATES (ANGSTROEM)
---------------------------------
  C     -0.004987   -0.001738    0.019669
  C      1.519315   -0.029855    0.012187
  H     -0.375858    1.042711   -0.054431
  H     -0.384180   -0.465949    0.948511
  H     -0.410071   -0.543820   -0.861246
  C      2.200752    0.574406   -1.210464
  H      1.882500    0.046772   -2.134782
  H      3.298522    0.503026   -1.101633
  H      1.905867    1.637879   -1.336735
  O      2.159236   -0.510006    0.934586

 Multiplicity           Mult            ....    1
 Number of Electrons    NEL             ....   32
 Basis Dimension        Dim             ....   86

ORBITAL ENERGIES
----------------

  NO   OCC          E(Eh)            E(eV)
   0   2.0000     -18.765091      -510.6241
   1   2.0000      -9.998353      -272.0690
   2   2.0000      -9.922497      -270.0049
   3   2.0000      -9.922486      -270.0046
   4   2.0000      -0.937265       -25.5043
   5   2.0000      -0.690486       -18.7891
   6   2.0000      -0.635588       -17.2952
   7   2.0000      -0.471897       -12.8410
   8   2.0000      -0.412901       -11.2356
   9   2.0000      -0.410278       -11.1642
  10   2.0000      -0.396850       -10.7988
  11   2.0000      -0.358588        -9.7577
  12   2.0000      -0.346874        -9.4389
  13   2.0000      -0.334748        -9.1090
  14   2.0000      -0.312229        -8.4962
  15   2.0000      -0.202898        -5.5211
  16   0.0000      -0.056408        -1.5349
  17   0.0000       0.032684         0.8894
  18   0.0000       0.086299         2.3483
  19   0.0000       0.088339         2.4038
  20   0.0000       0.097110         2.6425

MULLIKEN ATOMIC CHARGES
-----------------------
   0 C :   -0.037397
   1 C :   -0.058826
   2 H :    0.051317
   3 H :    0.051679
   4 H :    0.051207
   5 C :   -0.037489
   6 H :    0.051448
   7 H :    0.051680
   8 H :    0.051066
   9 O :   -0.174686
Sum of atomic charges:   -0.0000000

LOEWDIN ATOMIC CHARGES
----------------------
   0 C :   -0.099222
   1 C :    0.064017
   2 H :    0.046856
   3 H :    0.041544
   4 H :    0.046771
   5 C :   -0.099248
   6 H :    0.046957
   7 H :    0.041549
   8 H :    0.046658
   9 O :   -0.135882

  Mayer bond orders larger than 0.100000
B(  0-C ,  1-C ) :   1.0039 B(  0-C ,  2-H ) :   0.9461 B(  0-C ,  3-H ) :   0.9534
B(  0-C ,  4-H ) :   0.9463 B(  1-C ,  5-C ) :   1.0039 B(  1-C ,  9-O ) :   2.1779
B(  5-C ,  6-H ) :   0.9461 B(  5-C ,  7-H ) :   0.9534 B(  5-C ,  8-H ) :   0.9463

FINAL SINGLE POINT ENERGY      -193.011599197029

DIPOLE MOMENT
-------------
                                X             Y             Z
Electronic contribution:      2.12569      -1.59496       3.06524
Nuclear contribution   :     -2.68963       2.01763      -3.87843
                        -----------------------------------------
Total Dipole Moment    :     -0.56394       0.42267      -0.81319
                        -----------------------------------------
Magnitude (a.u.)       :      1.07608
Magnitude (Debye)      :      2.73519

Rotational constants in cm-1:     0.332616     0.280053     0.161337
Rotational constants in MHz :  9971.586353  8395.791316  4836.750764

                             ****ORCA TERMINATED NORMALLY****
TOTAL RUN TIME: 0 days 0 hours 0 minutes 50 seconds 784 msec
