                         Program Version 5.0.4 -  RELEASE  -
|  1> !def2-SVP TightSCF
|  2> !PAL2
|  3> %rocis
|  4>    NRoots 2
|  5>    MaxDim 5
|  6> end
|  7>
|  8> *int 0 1
|  9>    C     0     0     0        0.00000        0.00000        0.00000
| 10>    C     1     0     0        1.33579        0.00000        0.00000
| 11>    H     1     2     0        1.08549      121.05026        0.00000
| 12>    H     1     2     3        1.08549      121.05026      180.00000
| 13>    H     2     1     3        1.08549      121.05026        0.00000
| 14>    H     2     1     3        1.08549      121.05026      180.00000
| 15> **                         ****END OF INPUT****

CARTESIAN COORDINATES (ANGSTROEM)
---------------------------------
  C      0.000000    0.000000    0.000000
  C      1.335790    0.000000    0.000000
  H     -0.559885    0.929956    0.000000
  H     -0.559885   -0.929956   -0.000000
  H      1.895675    0.929956    0.000000
  H      1.895675   -0.929956    0.000000

 Total Charge           Charge          ....    0
 Multiplicity           Mult            ....    1
 Number of Electrons    NEL             ....   16
 Basis Dimension        Dim             ....   48

ORBITAL ENERGIES
----------------

  NO   OCC          E(Eh)            E(eV)
   0   2.0000     -11.236712      -305.7665
   1   2.0000     -11.235125      -305.7233
   2   2.0000      -1.020616       -27.7724
   3   2.0000      -0.781313       -21.2606
   4   2.0000      -0.642703       -17.4888
   5   2.0000      -0.585101       -15.9214
   6   2.0000      -0.506973       -13.7954
   7   2.0000      -0.376185       -10.2365
   8   0.0000       0.164546         4.4775
   9   0.0000       0.205032         5.5792
  10   0.0000       0.231706         6.3050
  11   0.0000       0.241066         6.5597
  12   0.0000       0.303306         8.2534

MULLIKEN ATOMIC CHARGES
-----------------------
   0 C :   -0.117842
   1 C :   -0.117842
   2 H :    0.058921
   3 H :    0.058921
   4 H :    0.058921
   5 H :    0.058921
Sum of atomic charges:   -0.0000000

LOEWDIN ATOMIC CHARGES
----------------------
   0 C :   -0.044172
   1 C :   -0.044172
   2 H :    0.022086
   3 H :    0.022086
   4 H :    0.022086
   5 H :    0.022086

  Mayer bond orders larger than 0.100000
B(  0-C ,  1-C ) :   2.0264 B(  0-C ,  2-H ) :   0.9799 B(  0-C ,  3-H ) :   0.9799
B(  1-C ,  4-H ) :   0.9799 B(  1-C ,  5-H ) :   0.9799

-----------------------------------------------------------------------------
         ABSORPTION SPECTRUM VIA TRANSITION ELECTRIC DIPOLE MOMENTS
-----------------------------------------------------------------------------
State   Energy    Wavelength  fosc       T2         TX        TY        TZ
        (cm-1)      (nm)               (au**2)     (au)      (au)      (au)
-----------------------------------------------------------------------------
   1   67864.9    147.4   0.633734613   3.07424   1.75335   0.00000  -0.00000

FINAL SINGLE POINT ENERGY       -77.977605001549

DIPOLE MOMENT
-------------
                                X             Y             Z
Electronic contribution:     -0.00000       0.00000      -0.00000
Nuclear contribution   :     -0.00000       0.00000       0.00000
                        -----------------------------------------
Total Dipole Moment    :     -0.00000       0.00000      -0.00000
                        -----------------------------------------
Magnitude (a.u.)       :      0.00000
Magnitude (Debye)      :      0.00000

Rotational constants in cm-1:     4.834503     1.003800     0.831213
Rotational constants in MHz : 144934.742784 30093.158438 24919.136591

                             ****ORCA TERMINATED NORMALLY****
TOTAL RUN TIME: 0 days 0 hours 0 minutes 18 seconds 815 msec
