                         Program Version 5.0.4 -  RELEASE  -
|  1> !HF Freq def2-SVP
|  2> !PAL2
|  3>
|  4>
|  5> *int 0 1
|  6>     C      0   0   0     0.000000000000     0.00000000     0.00000000
|  7>     C      1   0   0     1.524579455348     0.00000000     0.00000000
|  8>     H      1   2   0     1.110814431562   110.53781190     0.00000000
|  9>     H      1   2   3     1.105453354505   109.83646646   238.86889347
| 10>     H      1   2   3     1.110836047751   110.59186188   117.70661606
| 11>     C      2   1   3     1.524586535308   116.32804112   301.02004973
| 12>     H      6   2   1     1.110875949412   110.54696976   300.76192478
| 13>     H      6   2   1     1.105458425981   109.83504254   179.67305048
| 14>     H      6   2   1     1.110799993188   110.60744111    58.47705812
| 15>     O      2   1   3     1.221009403011   121.83949219   121.02644250
| 16> **                         ****END OF INPUT****

CARTESIAN COORDINATES (ANGSTROEM)
---------------------------------
  C      0.000000    0.000000    0.000000
  C      1.524579    0.000000    0.000000
  H     -0.389702    1.040212    0.000000
  H     -0.375121   -0.537606    0.890107
  H     -0.390691   -0.483479   -0.920633
  C      2.200749    0.704179   -1.171022
  H      1.896820    0.239845   -2.133345
  H      3.299101    0.644847   -1.060841
  H      1.886923    1.768544   -1.221191
  O      2.168713   -0.534651    0.888879

 Total Charge           Charge          ....    0
 Multiplicity           Mult            ....    1
 Number of Electrons    NEL             ....   32
 Basis Dimension        Dim             ....   86

ORBITAL ENERGIES
----------------

  NO   OCC          E(Eh)            E(eV)
   0   2.0000     -20.541449      -558.9612
   1   2.0000     -11.336728      -308.4880
   2   2.0000     -11.247736      -306.0665
   3   2.0000     -11.247712      -306.0658
   4   2.0000      -1.364130       -37.1199
   5   2.0000      -1.026534       -27.9334
   6   2.0000      -0.952259       -25.9123
   7   2.0000      -0.731866       -19.9151
   8   2.0000      -0.643508       -17.5107
   9   2.0000      -0.633023       -17.2254
  10   2.0000      -0.618004       -16.8168
  11   2.0000      -0.560640       -15.2558
  12   2.0000      -0.555894       -15.1267
  13   2.0000      -0.534559       -14.5461
  14   2.0000      -0.484530       -13.1847
  15   2.0000      -0.415153       -11.2969
  16   0.0000       0.148786         4.0487
  17   0.0000       0.160971         4.3803
  18   0.0000       0.222010         6.0412
  19   0.0000       0.238581         6.4921
  20   0.0000       0.247683         6.7398

MULLIKEN ATOMIC CHARGES
-----------------------
   0 C :   -0.079197
   1 C :    0.148345
   2 H :    0.059185
   3 H :    0.073794
   4 H :    0.059084
   5 C :   -0.079264
   6 H :    0.059313
   7 H :    0.073785
   8 H :    0.058957
   9 O :   -0.374004
Sum of atomic charges:    0.0000000

LOEWDIN ATOMIC CHARGES
----------------------
   0 C :   -0.064600
   1 C :    0.149100
   2 H :    0.035707
   3 H :    0.037176
   4 H :    0.035645
   5 C :   -0.064624
   6 H :    0.035801
   7 H :    0.037176
   8 H :    0.035546
   9 O :   -0.236927

  Mayer bond orders larger than 0.100000
B(  0-C ,  1-C ) :   0.9743 B(  0-C ,  2-H ) :   0.9731 B(  0-C ,  3-H ) :   0.9800
B(  0-C ,  4-H ) :   0.9733 B(  1-C ,  5-C ) :   0.9743 B(  1-C ,  9-O ) :   2.0345
B(  5-C ,  6-H ) :   0.9731 B(  5-C ,  7-H ) :   0.9800 B(  5-C ,  8-H ) :   0.9733

FINAL SINGLE POINT ENERGY      -191.815584823637

DIPOLE MOMENT
-------------
                                X             Y             Z
Electronic contribution:      2.01398      -1.67165       2.78054
Nuclear contribution   :     -2.70732       2.24681      -3.73758
                        -----------------------------------------
Total Dipole Moment    :     -0.69334       0.57515      -0.95704
                        -----------------------------------------
Magnitude (a.u.)       :      1.31432
Magnitude (Debye)      :      3.34074

VIBRATIONAL FREQUENCIES
-----------------------

Scaling factor for frequencies =  1.000000000  (already applied!)

   0:         0.00 cm**-1
   1:         0.00 cm**-1
   2:         0.00 cm**-1
   3:         0.00 cm**-1
   4:         0.00 cm**-1
   5:         0.00 cm**-1
   6:       389.10 cm**-1
   7:       403.18 cm**-1
   8:       440.40 cm**-1
   9:       600.32 cm**-1
  10:       623.23 cm**-1
  11:       823.81 cm**-1
  12:      1003.74 cm**-1
  13:      1014.17 cm**-1
  14:      1193.47 cm**-1
  15:      1241.34 cm**-1
  16:      1340.68 cm**-1
  17:      1532.28 cm**-1
  18:      1543.14 cm**-1
  19:      1575.46 cm**-1
  20:      1580.98 cm**-1
  21:      1583.08 cm**-1
  22:      1601.22 cm**-1
  23:      1838.64 cm**-1
  24:      3023.10 cm**-1
  25:      3030.64 cm**-1
  26:      3083.28 cm**-1
  27:      3091.54 cm**-1
  28:      3149.22 cm**-1
  29:      3150.08 cm**-1

IR SPECTRUM
-----------

 Mode   freq       eps      Int      T**2         TX        TY        TZ
       cm**-1   L/(mol*cm) km/mol    a.u.
----------------------------------------------------------------------------
  6:    389.10   0.000000    0.00  0.000000  (-0.000065  0.000107 -0.000037)
  7:    403.18   0.000006    0.03  0.000005  ( 0.000095 -0.001889 -0.001020)
  8:    440.40   0.000302    1.53  0.000214  ( 0.007746 -0.006411  0.010620)
  9:    600.32   0.004026   20.34  0.002093  ( 0.038915  0.012324 -0.020652)
 10:    623.23   0.000445    2.25  0.000223  ( 0.000128  0.012936  0.007463)
 11:    823.81   0.000000    0.00  0.000000  (-0.000159 -0.000172  0.000285)
 12:   1003.74   0.001601    8.09  0.000498  ( 0.019081  0.005914 -0.009939)
 13:   1014.17   0.000001    0.00  0.000000  (-0.000281 -0.000222 -0.000252)
 14:   1193.47   0.000446    2.25  0.000117  (-0.005932  0.004612 -0.007757)
 15:   1241.34   0.000631    3.19  0.000159  ( 0.000010 -0.010725 -0.006596)
 16:   1340.68   0.014153   71.52  0.003294  ( 0.048582  0.015752 -0.026191)
 17:   1532.28   0.001554    7.85  0.000317  ( 0.009268 -0.007805  0.013027)
 18:   1543.14   0.009774   49.39  0.001977  (-0.037850 -0.011912  0.020050)
 19:   1575.46   0.000201    1.02  0.000040  (-0.004653 -0.002283  0.003603)
 20:   1580.98   0.006241   31.54  0.001232  (-0.018774  0.015412 -0.025334)
 21:   1583.08   0.000003    0.02  0.000001  (-0.000426  0.000661 -0.000180)
 22:   1601.22   0.004450   22.49  0.000867  (-0.000104 -0.025231 -0.015191)
 23:   1838.64   0.045685  230.87  0.007754  ( 0.046382 -0.038563  0.064153)
 24:   3023.10   0.000639    3.23  0.000066  (-0.007418 -0.001702  0.002827)
 25:   3030.64   0.001761    8.90  0.000181  (-0.006574  0.006076 -0.010058)
 26:   3083.28   0.000008    0.04  0.000001  (-0.000133  0.000865  0.000273)
 27:   3091.54   0.005804   29.33  0.000586  ( 0.000081 -0.020795 -0.012385)
 28:   3149.22   0.002056   10.39  0.000204  ( 0.013586  0.002201 -0.003787)
 29:   3150.08   0.001748    8.83  0.000173  (-0.003092  0.006640 -0.010932)

--------------------------
THERMOCHEMISTRY AT 298.15K
--------------------------

Temperature         ... 298.15 K
Pressure            ... 1.00 atm
Total Mass          ... 58.08 AMU

Throughout the following assumptions are being made:
  (1) The electronic state is orbitally nondegenerate
  (2) There are no thermally accessible electronically excited states
  (3) Hindered rotations indicated by low frequency modes are not
      treated as such but are treated as vibrations and this may
      cause some error
  (4) All equations used are the standard statistical mechanics
      equations for an ideal gas
  (5) All vibrations are strictly harmonic

freq.     389.10  E(vib)   ...       0.20
freq.     403.18  E(vib)   ...       0.19
freq.     440.40  E(vib)   ...       0.17
freq.     600.32  E(vib)   ...       0.10
freq.     623.23  E(vib)   ...       0.09
freq.     823.81  E(vib)   ...       0.05
freq.    1003.74  E(vib)   ...       0.02
freq.    1014.17  E(vib)   ...       0.02
freq.    1193.47  E(vib)   ...       0.01
freq.    1241.34  E(vib)   ...       0.01
freq.    1340.68  E(vib)   ...       0.01
freq.    1532.28  E(vib)   ...       0.00
freq.    1543.14  E(vib)   ...       0.00
freq.    1575.46  E(vib)   ...       0.00
freq.    1580.98  E(vib)   ...       0.00
freq.    1583.08  E(vib)   ...       0.00
freq.    1601.22  E(vib)   ...       0.00
freq.    1838.64  E(vib)   ...       0.00
freq.    3023.10  E(vib)   ...       0.00
freq.    3030.64  E(vib)   ...       0.00
freq.    3083.28  E(vib)   ...       0.00
freq.    3091.54  E(vib)   ...       0.00
freq.    3149.22  E(vib)   ...       0.00
freq.    3150.08  E(vib)   ...       0.00

------------
INNER ENERGY
------------

The inner energy is: U= E(el) + E(ZPE) + E(vib) + E(rot) + E(trans)
    E(el)   - is the total energy from the electronic structure calculation
              = E(kin-el) + E(nuc-el) + E(el-el) + E(nuc-nuc)
    E(ZPE)  - the the zero temperature vibrational energy from the frequency calculation
    E(vib)  - the the finite temperature correction to E(ZPE) due to population
              of excited vibrational states
    E(rot)  - is the rotational thermal energy
    E(trans)- is the translational thermal energy

Summary of contributions to the inner energy U:
Electronic energy                ...   -191.81558482 Eh
Zero point energy                ...      0.08852070 Eh      55.55 kcal/mol
Thermal vibrational correction   ...      0.00141322 Eh       0.89 kcal/mol
Thermal rotational correction    ...      0.00141627 Eh       0.89 kcal/mol
Thermal translational correction ...      0.00141627 Eh       0.89 kcal/mol
-----------------------------------------------------------------------
Total thermal energy                   -191.72281835 Eh

Summary of corrections to the electronic energy:
(perhaps to be used in another calculation)
Total thermal correction                  0.00424577 Eh       2.66 kcal/mol
Non-thermal (ZPE) correction              0.08852070 Eh      55.55 kcal/mol
-----------------------------------------------------------------------
Total correction                          0.09276647 Eh      58.21 kcal/mol

--------
ENTHALPY
--------

The enthalpy is H = U + kB*T
                kB is Boltzmann's constant
Total free energy                 ...   -191.72281835 Eh
Thermal Enthalpy correction       ...      0.00094421 Eh       0.59 kcal/mol
-----------------------------------------------------------------------
Total Enthalpy                    ...   -191.72187415 Eh

Note: Only C1 symmetry has been detected, increase convergence thresholds
      if your molecule has a higher symmetry. Symmetry factor of 1.0 is
      used for the rotational entropy correction.

Note: Rotational entropy computed according to Herzberg
Infrared and Raman Spectra, Chapter V,1, Van Nostrand Reinhold, 1945
Point Group:  C1, Symmetry Number:   1
Rotational constants in cm-1:     0.332616     0.280053     0.161337

Vibrational entropy computed according to the QRRHO of S. Grimme
Chem.Eur.J. 2012 18 9955

-------
ENTROPY
-------

The entropy contributions are T*S = T*(S(el)+S(vib)+S(rot)+S(trans))
     S(el)   - electronic entropy
     S(vib)  - vibrational entropy
     S(rot)  - rotational entropy
     S(trans)- translational entropy
The entropies will be listed as multiplied by the temperature to get
units of energy

Electronic entropy                ...      0.00000000 Eh      0.00 kcal/mol
Vibrational entropy               ...      0.00198260 Eh      1.24 kcal/mol
Rotational entropy                ...      0.01149255 Eh      7.21 kcal/mol
Translational entropy             ...      0.01810171 Eh     11.36 kcal/mol
-----------------------------------------------------------------------
Final entropy term                ...      0.03157687 Eh     19.81 kcal/mol

In case the symmetry of your molecule has not been determined correctly
or in case you have a reason to use a different symmetry number we print
out the resulting rotational entropy values for sn=1,12 :
 --------------------------------------------------------
|  sn= 1 | S(rot)=       0.01149255 Eh      7.21 kcal/mol|
|  sn= 2 | S(rot)=       0.01083810 Eh      6.80 kcal/mol|
|  sn= 3 | S(rot)=       0.01045526 Eh      6.56 kcal/mol|
|  sn= 4 | S(rot)=       0.01018364 Eh      6.39 kcal/mol|
|  sn= 5 | S(rot)=       0.00997295 Eh      6.26 kcal/mol|
|  sn= 6 | S(rot)=       0.00980081 Eh      6.15 kcal/mol|
|  sn= 7 | S(rot)=       0.00965526 Eh      6.06 kcal/mol|
|  sn= 8 | S(rot)=       0.00952918 Eh      5.98 kcal/mol|
|  sn= 9 | S(rot)=       0.00941798 Eh      5.91 kcal/mol|
|  sn=10 | S(rot)=       0.00931850 Eh      5.85 kcal/mol|
|  sn=11 | S(rot)=       0.00922851 Eh      5.79 kcal/mol|
|  sn=12 | S(rot)=       0.00914635 Eh      5.74 kcal/mol|
 --------------------------------------------------------

-------------------
GIBBS FREE ENERGY
-------------------

The Gibbs free energy is G = H - T*S

Total enthalpy                    ...   -191.72187415 Eh
Total entropy correction          ...     -0.03157687 Eh    -19.81 kcal/mol
-----------------------------------------------------------------------
Final Gibbs free energy         ...   -191.75345101 Eh

For completeness - the Gibbs free energy minus the electronic energy
G-E(el)                           ...      0.06213381 Eh     38.99 kcal/mol

                             ****ORCA TERMINATED NORMALLY****
TOTAL RUN TIME: 0 days 0 hours 0 minutes 19 seconds 264 msec
