                         Program Version 5.0.4 -  RELEASE  -
|  1> !PM3 OptTS NumFreq
|  2>
|  3> %geom
|  4> 	Calc_hess true
|  5> 	NumHess true
|  6> 	Recalc_Hess 5
|  7> end
|  8>
|  9> *int -1 1
| 10> 	C      0   0   0     0.000000000000     0.00000000     0.00000000
| 11> 	Cl     1   0   0     2.079585242487     0.00000000     0.00000000
| 12> 	H      1   2   0     1.081721867911    96.03923931     0.00000000
| 13> 	H      1   2   3     1.081741782719    96.03225715   239.99909738
| 14> 	H      1   2   3     1.081734493373    96.03564226   120.00574515
| 15> 	F      1   2   3     2.100000027633   179.98926144    28.59469063
| 16> **                         ****END OF INPUT****
 Total Charge           Charge          ....   -1
 Multiplicity           Mult            ....    1
 Number of Electrons    NEL             ....   22
FINAL SINGLE POINT ENERGY       -33.865529214590
FINAL SINGLE POINT ENERGY       -33.865408817986
FINAL SINGLE POINT ENERGY       -33.865407644648
                    ***********************HURRAY********************

CARTESIAN COORDINATES (ANGSTROEM)
---------------------------------
  C      0.026642    0.000026   -0.000017
  Cl     2.070407   -0.000118    0.000040
  H     -0.119533    1.072596   -0.000051
  H     -0.119690   -0.536167    0.928868
  H     -0.119639   -0.536219   -0.928879
  F     -2.099830    0.000092   -0.000092

 Multiplicity           Mult            ....    1
 Number of Electrons    NEL             ....   22
 Basis Dimension        Dim             ....   15

ORBITAL ENERGIES
----------------

  NO   OCC          E(Eh)            E(eV)
   0   2.0000      -1.851056       -50.3698
   1   2.0000      -0.865407       -23.5489
   2   2.0000      -0.378014       -10.2863
   3   2.0000      -0.378000       -10.2859
   4   2.0000      -0.328241        -8.9319
   5   2.0000      -0.279534        -7.6065
   6   2.0000      -0.233200        -6.3457
   7   2.0000      -0.233200        -6.3457
   8   2.0000      -0.184544        -5.0217
   9   2.0000      -0.184543        -5.0217
  10   2.0000      -0.151986        -4.1358
  11   0.0000       0.179917         4.8958
  12   0.0000       0.289337         7.8733
  13   0.0000       0.324267         8.8237
  14   0.0000       0.324277         8.8240

MULLIKEN ATOMIC CHARGES
-----------------------
   0 C :    0.103506
   1 Cl:   -0.612204
   2 H :    0.118739
   3 H :    0.118765
   4 H :    0.118767
   5 F :   -0.847573
Sum of atomic charges:   -1.0000000

LOEWDIN ATOMIC CHARGES
----------------------
   0 C :    0.308455
   1 Cl:   -0.597053
   2 H :    0.045007
   3 H :    0.045025
   4 H :    0.045027
   5 F :   -0.846461

  Mayer bond orders larger than 0.100000
B(  0-C ,  1-Cl) :   1.2567 B(  0-C ,  2-H ) :   2.8741 B(  0-C ,  3-H ) :   2.8741
B(  0-C ,  4-H ) :   2.8741 B(  0-C ,  5-F ) :   0.3047 B(  2-H ,  3-H ) :   0.1201
B(  2-H ,  4-H ) :   0.1201 B(  3-H ,  4-H ) :   0.1200

FINAL SINGLE POINT ENERGY       -33.865407633942

DIPOLE MOMENT
-------------
                                X             Y             Z
Electronic contribution:     25.75448      -0.00194       0.00074
Nuclear contribution   :    -19.97983       0.00134      -0.00059
                        -----------------------------------------
Total Dipole Moment    :      5.77464      -0.00060       0.00014
                        -----------------------------------------
Magnitude (a.u.)       :      5.77464
Magnitude (Debye)      :     14.67797

VIBRATIONAL FREQUENCIES
-----------------------

Scaling factor for frequencies =  1.000000000 (already applied!)

   0:         0.00 cm**-1
   1:         0.00 cm**-1
   2:         0.00 cm**-1
   3:         0.00 cm**-1
   4:         0.00 cm**-1
   5:         0.00 cm**-1
   6:      -504.78 cm**-1 ***imaginary mode***
   7:       173.63 cm**-1
   8:       173.63 cm**-1
   9:       331.22 cm**-1
  10:       928.93 cm**-1
  11:       929.06 cm**-1
  12:      1074.31 cm**-1
  13:      1269.36 cm**-1
  14:      1269.78 cm**-1
  15:      3107.79 cm**-1
  16:      3187.78 cm**-1
  17:      3187.92 cm**-1

IR SPECTRUM
-----------

 Mode   freq       eps      Int      T**2         TX        TY        TZ
       cm**-1   L/(mol*cm) km/mol    a.u.
----------------------------------------------------------------------------
  7:    173.63   0.113507  573.62  0.204006  (-0.000030  0.289192  0.346949)
  8:    173.63   0.113529  573.73  0.204039  (-0.000012  0.347128 -0.289035)
  9:    331.22   0.000828    4.18  0.000780  ( 0.027930  0.000271  0.000008)
 10:    928.93   0.002444   12.35  0.000821  (-0.000033  0.001084  0.028632)
 11:    929.06   0.002464   12.45  0.000828  ( 0.000391 -0.028748  0.001081)
 12:   1074.31   0.384632  1943.77  0.111727  ( 0.334256 -0.000010  0.000012)
 13:   1269.36   0.051477  260.14  0.012655  ( 0.000006  0.000058 -0.112495)
 14:   1269.78   0.051571  260.62  0.012674  ( 0.000078  0.112580  0.000058)
 15:   3107.79   0.146555  740.63  0.014716  (-0.121310  0.000105 -0.000002)
 16:   3187.78   0.109595  553.85  0.010729  ( 0.000003  0.000138 -0.103579)
 17:   3187.92   0.109208  551.89  0.010690  ( 0.000098  0.103394  0.000138)

--------------------------
THERMOCHEMISTRY AT 298.15K
--------------------------

Temperature         ... 298.15 K
Pressure            ... 1.00 atm
Total Mass          ... 69.49 AMU

Throughout the following assumptions are being made:
  (1) The electronic state is orbitally nondegenerate
  (2) There are no thermally accessible electronically excited states
  (3) Hindered rotations indicated by low frequency modes are not
      treated as such but are treated as vibrations and this may
      cause some error
  (4) All equations used are the standard statistical mechanics
      equations for an ideal gas
  (5) All vibrations are strictly harmonic

freq.     173.63  E(vib)   ...       0.38
freq.     173.63  E(vib)   ...       0.38
freq.     331.22  E(vib)   ...       0.24
freq.     928.93  E(vib)   ...       0.03
freq.     929.06  E(vib)   ...       0.03
freq.    1074.31  E(vib)   ...       0.02
freq.    1269.36  E(vib)   ...       0.01
freq.    1269.78  E(vib)   ...       0.01
freq.    3107.79  E(vib)   ...       0.00
freq.    3187.78  E(vib)   ...       0.00
freq.    3187.92  E(vib)   ...       0.00

------------
INNER ENERGY
------------

The inner energy is: U= E(el) + E(ZPE) + E(vib) + E(rot) + E(trans)
    E(el)   - is the total energy from the electronic structure calculation
              = E(kin-el) + E(nuc-el) + E(el-el) + E(nuc-nuc)
    E(ZPE)  - the the zero temperature vibrational energy from the frequency calculation
    E(vib)  - the the finite temperature correction to E(ZPE) due to population
              of excited vibrational states
    E(rot)  - is the rotational thermal energy
    E(trans)- is the translational thermal energy

Summary of contributions to the inner energy U:
Electronic energy                ...    -33.86540763 Eh
Zero point energy                ...      0.03561551 Eh      22.35 kcal/mol
Thermal vibrational correction   ...      0.00173876 Eh       1.09 kcal/mol
Thermal rotational correction    ...      0.00141627 Eh       0.89 kcal/mol
Thermal translational correction ...      0.00141627 Eh       0.89 kcal/mol
-----------------------------------------------------------------------
Total thermal energy                    -33.82522082 Eh

Summary of corrections to the electronic energy:
(perhaps to be used in another calculation)
Total thermal correction                  0.00457131 Eh       2.87 kcal/mol
Non-thermal (ZPE) correction              0.03561551 Eh      22.35 kcal/mol
-----------------------------------------------------------------------
Total correction                          0.04018682 Eh      25.22 kcal/mol

--------
ENTHALPY
--------

The enthalpy is H = U + kB*T
                kB is Boltzmann's constant
Total free energy                 ...    -33.82522082 Eh
Thermal Enthalpy correction       ...      0.00094421 Eh       0.59 kcal/mol
-----------------------------------------------------------------------
Total Enthalpy                    ...    -33.82427661 Eh

Note: Rotational entropy computed according to Herzberg
Infrared and Raman Spectra, Chapter V,1, Van Nostrand Reinhold, 1945
Point Group:  Cs, Symmetry Number:   1
Rotational constants in cm-1:     4.845977     0.076137     0.076137

Vibrational entropy computed according to the QRRHO of S. Grimme
Chem.Eur.J. 2012 18 9955

-------
ENTROPY
-------

The entropy contributions are T*S = T*(S(el)+S(vib)+S(rot)+S(trans))
     S(el)   - electronic entropy
     S(vib)  - vibrational entropy
     S(rot)  - rotational entropy
     S(trans)- translational entropy
The entropies will be listed as multiplied by the temperature to get
units of energy

Electronic entropy                ...      0.00000000 Eh      0.00 kcal/mol
Vibrational entropy               ...      0.00304649 Eh      1.91 kcal/mol
Rotational entropy                ...      0.01119725 Eh      7.03 kcal/mol
Translational entropy             ...      0.01835566 Eh     11.52 kcal/mol
-----------------------------------------------------------------------
Final entropy term                ...      0.03259940 Eh     20.46 kcal/mol

In case the symmetry of your molecule has not been determined correctly
or in case you have a reason to use a different symmetry number we print
out the resulting rotational entropy values for sn=1,12 :
 --------------------------------------------------------
|  sn= 1 | S(rot)=       0.01119725 Eh      7.03 kcal/mol|
|  sn= 2 | S(rot)=       0.01054280 Eh      6.62 kcal/mol|
|  sn= 3 | S(rot)=       0.01015996 Eh      6.38 kcal/mol|
|  sn= 4 | S(rot)=       0.00988834 Eh      6.21 kcal/mol|
|  sn= 5 | S(rot)=       0.00967765 Eh      6.07 kcal/mol|
|  sn= 6 | S(rot)=       0.00950551 Eh      5.96 kcal/mol|
|  sn= 7 | S(rot)=       0.00935996 Eh      5.87 kcal/mol|
|  sn= 8 | S(rot)=       0.00923388 Eh      5.79 kcal/mol|
|  sn= 9 | S(rot)=       0.00912267 Eh      5.72 kcal/mol|
|  sn=10 | S(rot)=       0.00902320 Eh      5.66 kcal/mol|
|  sn=11 | S(rot)=       0.00893321 Eh      5.61 kcal/mol|
|  sn=12 | S(rot)=       0.00885105 Eh      5.55 kcal/mol|
 --------------------------------------------------------

-------------------
GIBBS FREE ENERGY
-------------------

The Gibbs free energy is G = H - T*S

Total enthalpy                    ...    -33.82427661 Eh
Total entropy correction          ...     -0.03259940 Eh    -20.46 kcal/mol
-----------------------------------------------------------------------
Final Gibbs free energy         ...    -33.85687601 Eh

For completeness - the Gibbs free energy minus the electronic energy
G-E(el)                           ...      0.00853162 Eh      5.35 kcal/mol

                             ****ORCA TERMINATED NORMALLY****
TOTAL RUN TIME: 0 days 0 hours 2 minutes 1 seconds 69 msec
