                         Program Version 5.0.4 -  RELEASE  -
|  1> !PM3 OptTS NumFreq
|  2>
|  3>
|  4> %geom
|  5> 	Calc_hess true
|  6> 	NumHess true
|  7> 	Recalc_Hess 5
|  8> end
|  9>
| 10> *xyz 0 1
| 11> 	C        0.001313000      0.000005000     -0.000046000
| 12> 	C        1.475999000      0.008294000     -0.013976000
| 13> 	H       -0.375968000      1.031458000      0.002341000
| 14> 	H       -0.420180000     -0.519965000      0.869851000
| 15> 	H       -0.376142000     -0.490251000     -0.907448000
| 16> 	C        2.450839000      0.585187000     -0.981837000
| 17> 	H        2.467266000      0.142612000     -1.977631000
| 18> 	H        3.142212000      0.018241000     -0.030621000
| 19> 	H        2.467304000      1.671658000     -1.066026000
| 20> 	O        2.253070000     -0.492092000      0.825833000
| 21>
| 22> **                         ****END OF INPUT****
 Total Charge           Charge          ....    0
 Multiplicity           Mult            ....    1
 Number of Electrons    NEL             ....   24
FINAL SINGLE POINT ENERGY       -27.169177236202
FINAL SINGLE POINT ENERGY       -27.156351436039
FINAL SINGLE POINT ENERGY       -27.150579126730
FINAL SINGLE POINT ENERGY       -27.150419852386
FINAL SINGLE POINT ENERGY       -27.150114697655
FINAL SINGLE POINT ENERGY       -27.151122271169
FINAL SINGLE POINT ENERGY       -27.152403008769
FINAL SINGLE POINT ENERGY       -27.153780038277
FINAL SINGLE POINT ENERGY       -27.154753103088
FINAL SINGLE POINT ENERGY       -27.155616954392
FINAL SINGLE POINT ENERGY       -27.155959890857
FINAL SINGLE POINT ENERGY       -27.156024977815
FINAL SINGLE POINT ENERGY       -27.156026015014
                    ***********************HURRAY********************

CARTESIAN COORDINATES (ANGSTROEM)
---------------------------------
  C      0.007478   -0.037711   -0.028716
  C      1.479849    0.081525   -0.043216
  H     -0.453244    0.953212   -0.138009
  H     -0.379409   -0.492653    0.892357
  H     -0.322649   -0.651995   -0.877534
  C      2.327250    0.550560   -1.076563
  H      2.064663    0.439873   -2.122433
  H      3.208884   -0.015968    0.079173
  H      2.923056    1.448763   -0.895730
  O      2.229836   -0.320459    0.931112

 Multiplicity           Mult            ....    1
 Number of Electrons    NEL             ....   24
 Basis Dimension        Dim             ....   22

ORBITAL ENERGIES
----------------

  NO   OCC          E(Eh)            E(eV)
   0   2.0000      -1.443119       -39.2693
   1   2.0000      -1.156181       -31.4613
   2   2.0000      -1.012689       -27.5567
   3   2.0000      -0.718581       -19.5536
   4   2.0000      -0.625859       -17.0305
   5   2.0000      -0.601671       -16.3723
   6   2.0000      -0.577132       -15.7046
   7   2.0000      -0.510451       -13.8901
   8   2.0000      -0.500786       -13.6271
   9   2.0000      -0.480947       -13.0872
  10   2.0000      -0.440773       -11.9940
  11   2.0000      -0.328898        -8.9498
  12   0.0000       0.006344         0.1726
  13   0.0000       0.078766         2.1433
  14   0.0000       0.097468         2.6522
  15   0.0000       0.132054         3.5934
  16   0.0000       0.139860         3.8058

MULLIKEN ATOMIC CHARGES
-----------------------
   0 C :   -0.332710
   1 C :    0.317578
   2 H :    0.138485
   3 H :    0.141128
   4 H :    0.142522
   5 C :   -0.807614
   6 H :    0.198266
   7 H :    0.348939
   8 H :    0.216570
   9 O :   -0.363165
Sum of atomic charges:   -0.0000000

LOEWDIN ATOMIC CHARGES
----------------------
   0 C :   -0.111128
   1 C :    0.308288
   2 H :    0.066600
   3 H :    0.066811
   4 H :    0.070861
   5 C :   -0.596707
   6 H :    0.109995
   7 H :    0.308215
   8 H :    0.136794
   9 O :   -0.359729

  Mayer bond orders larger than 0.100000
B(  0-C ,  1-C ) :   2.9747 B(  0-C ,  2-H ) :   2.8770 B(  0-C ,  3-H ) :   2.8840
B(  0-C ,  4-H ) :   2.8744 B(  1-C ,  2-H ) :   0.1581 B(  1-C ,  3-H ) :   0.1185
B(  1-C ,  4-H ) :   0.1650 B(  1-C ,  5-C ) :   3.5832 B(  1-C ,  6-H ) :   0.1048
B(  1-C ,  7-H ) :   0.4075 B(  1-C ,  8-H ) :   0.1531 B(  1-C ,  9-O ) :   2.9341
B(  2-H ,  3-H ) :   0.1843 B(  2-H ,  4-H ) :   0.1963 B(  3-H ,  4-H ) :   0.1853
B(  5-C ,  6-H ) :   2.8621 B(  5-C ,  7-H ) :   1.2373 B(  5-C ,  8-H ) :   2.8616
B(  6-H ,  8-H ) :   0.1730 B(  7-H ,  8-H ) :   0.2764 B(  7-H ,  9-O ) :   0.9066

FINAL SINGLE POINT ENERGY       -27.156026072413

DIPOLE MOMENT
-------------
                                X             Y             Z
Electronic contribution:      7.66368      -3.91573       9.12343
Nuclear contribution   :     -1.75494       1.14193      -2.36119
                        -----------------------------------------
Total Dipole Moment    :      5.90874      -2.77380       6.76224
                        -----------------------------------------
Magnitude (a.u.)       :      9.39868
Magnitude (Debye)      :     23.88954

VIBRATIONAL FREQUENCIES
-----------------------

Scaling factor for frequencies =  1.000000000 (already applied!)

   0:         0.00 cm**-1
   1:         0.00 cm**-1
   2:         0.00 cm**-1
   3:         0.00 cm**-1
   4:         0.00 cm**-1
   5:         0.00 cm**-1
   6:     -2602.85 cm**-1 ***imaginary mode***
   7:        71.43 cm**-1
   8:       346.97 cm**-1
   9:       398.13 cm**-1
  10:       527.06 cm**-1
  11:       661.76 cm**-1
  12:       837.21 cm**-1
  13:       939.74 cm**-1
  14:       954.05 cm**-1
  15:       984.96 cm**-1
  16:      1053.89 cm**-1
  17:      1061.93 cm**-1
  18:      1315.85 cm**-1
  19:      1366.71 cm**-1
  20:      1378.38 cm**-1
  21:      1390.15 cm**-1
  22:      1576.06 cm**-1
  23:      1667.22 cm**-1
  24:      2069.77 cm**-1
  25:      3071.98 cm**-1
  26:      3084.42 cm**-1
  27:      3121.49 cm**-1
  28:      3168.70 cm**-1
  29:      3190.97 cm**-1

IR SPECTRUM
-----------

 Mode   freq       eps      Int      T**2         TX        TY        TZ
       cm**-1   L/(mol*cm) km/mol    a.u.
----------------------------------------------------------------------------
  7:     71.43   0.004931   24.92  0.021542  (-0.001781  0.128335  0.071200)
  8:    346.97   0.041717  210.82  0.037520  ( 0.112823  0.013047  0.156911)
  9:    398.13   0.048066  242.91  0.037675  ( 0.132405 -0.106478  0.093843)
 10:    527.06   0.017364   87.75  0.010281  ( 0.018936 -0.085822 -0.050569)
 11:    661.76   0.009591   48.47  0.004523  (-0.011328 -0.023433  0.062011)
 12:    837.21   0.005248   26.52  0.001956  (-0.026315  0.032389  0.014646)
 13:    939.74   0.022066  111.51  0.007327  (-0.079912  0.029025  0.009957)
 14:    954.05   0.020573  103.97  0.006729  ( 0.080140  0.010447 -0.014060)
 15:    984.96   0.001345    6.80  0.000426  (-0.000275 -0.018314  0.009528)
 16:   1053.89   0.005836   29.49  0.001728  (-0.030938  0.027182  0.005653)
 17:   1061.93   0.034832  176.03  0.010236  (-0.053699  0.030623 -0.080092)
 18:   1315.85   0.048425  244.72  0.011484  (-0.090446 -0.033614  0.046626)
 19:   1366.71   0.023423  118.37  0.005348  ( 0.037414 -0.022013  0.058855)
 20:   1378.38   0.018708   94.54  0.004235  ( 0.004200  0.063271  0.014648)
 21:   1390.15   0.017565   88.76  0.003943  (-0.047186 -0.002582  0.041349)
 22:   1576.06   0.021659  109.45  0.004288  (-0.020594  0.027715 -0.055643)
 23:   1667.22   0.019076   96.40  0.003571  ( 0.049447 -0.004232  0.033282)
 24:   2069.77   0.238885  1207.23  0.036017  ( 0.189503 -0.007217 -0.007325)
 25:   3071.98   0.129737  655.64  0.013179  ( 0.002019 -0.102795 -0.051071)
 26:   3084.42   0.135884  686.70  0.013748  (-0.018332  0.050778 -0.104084)
 27:   3121.49   0.623514  3150.98  0.062334  ( 0.173731  0.147682 -0.101695)
 28:   3168.70   2.001481  10114.66  0.197112  ( 0.442782  0.031146 -0.009309)
 29:   3190.97   0.909437  4595.92  0.088939  (-0.101936 -0.085201  0.267000)

--------------------------
THERMOCHEMISTRY AT 298.15K
--------------------------

Temperature         ... 298.15 K
Pressure            ... 1.00 atm
Total Mass          ... 58.08 AMU

Throughout the following assumptions are being made:
  (1) The electronic state is orbitally nondegenerate
  (2) There are no thermally accessible electronically excited states
  (3) Hindered rotations indicated by low frequency modes are not
      treated as such but are treated as vibrations and this may
      cause some error
  (4) All equations used are the standard statistical mechanics
      equations for an ideal gas
  (5) All vibrations are strictly harmonic

freq.      71.43  E(vib)   ...       0.50
freq.     346.97  E(vib)   ...       0.23
freq.     398.13  E(vib)   ...       0.20
freq.     527.06  E(vib)   ...       0.13
freq.     661.76  E(vib)   ...       0.08
freq.     837.21  E(vib)   ...       0.04
freq.     939.74  E(vib)   ...       0.03
freq.     954.05  E(vib)   ...       0.03
freq.     984.96  E(vib)   ...       0.02
freq.    1053.89  E(vib)   ...       0.02
freq.    1061.93  E(vib)   ...       0.02
freq.    1315.85  E(vib)   ...       0.01
freq.    1366.71  E(vib)   ...       0.01
freq.    1378.38  E(vib)   ...       0.01
freq.    1390.15  E(vib)   ...       0.00
freq.    1576.06  E(vib)   ...       0.00
freq.    1667.22  E(vib)   ...       0.00
freq.    2069.77  E(vib)   ...       0.00
freq.    3071.98  E(vib)   ...       0.00
freq.    3084.42  E(vib)   ...       0.00
freq.    3121.49  E(vib)   ...       0.00
freq.    3168.70  E(vib)   ...       0.00
freq.    3190.97  E(vib)   ...       0.00

------------
INNER ENERGY
------------

The inner energy is: U= E(el) + E(ZPE) + E(vib) + E(rot) + E(trans)
    E(el)   - is the total energy from the electronic structure calculation
              = E(kin-el) + E(nuc-el) + E(el-el) + E(nuc-nuc)
    E(ZPE)  - the the zero temperature vibrational energy from the frequency calculation
    E(vib)  - the the finite temperature correction to E(ZPE) due to population
              of excited vibrational states
    E(rot)  - is the rotational thermal energy
    E(trans)- is the translational thermal energy

Summary of contributions to the inner energy U:
Electronic energy                ...    -27.15602607 Eh
Zero point energy                ...      0.07800177 Eh      48.95 kcal/mol
Thermal vibrational correction   ...      0.00209855 Eh       1.32 kcal/mol
Thermal rotational correction    ...      0.00141627 Eh       0.89 kcal/mol
Thermal translational correction ...      0.00141627 Eh       0.89 kcal/mol
-----------------------------------------------------------------------
Total thermal energy                    -27.07309321 Eh

Summary of corrections to the electronic energy:
(perhaps to be used in another calculation)
Total thermal correction                  0.00493109 Eh       3.09 kcal/mol
Non-thermal (ZPE) correction              0.07800177 Eh      48.95 kcal/mol
-----------------------------------------------------------------------
Total correction                          0.08293287 Eh      52.04 kcal/mol

--------
ENTHALPY
--------

The enthalpy is H = U + kB*T
                kB is Boltzmann's constant
Total free energy                 ...    -27.07309321 Eh
Thermal Enthalpy correction       ...      0.00094421 Eh       0.59 kcal/mol
-----------------------------------------------------------------------
Total Enthalpy                    ...    -27.07214900 Eh

Note: Only C1 symmetry has been detected, increase convergence thresholds
      if your molecule has a higher symmetry. Symmetry factor of 1.0 is
      used for the rotational entropy correction.

Note: Rotational entropy computed according to Herzberg
Infrared and Raman Spectra, Chapter V,1, Van Nostrand Reinhold, 1945
Point Group:  C1, Symmetry Number:   1
Rotational constants in cm-1:     0.392484     0.267932     0.167418

Vibrational entropy computed according to the QRRHO of S. Grimme
Chem.Eur.J. 2012 18 9955

-------
ENTROPY
-------

The entropy contributions are T*S = T*(S(el)+S(vib)+S(rot)+S(trans))
     S(el)   - electronic entropy
     S(vib)  - vibrational entropy
     S(rot)  - rotational entropy
     S(trans)- translational entropy
The entropies will be listed as multiplied by the temperature to get
units of energy

Electronic entropy                ...      0.00000000 Eh      0.00 kcal/mol
Vibrational entropy               ...      0.00344152 Eh      2.16 kcal/mol
Rotational entropy                ...      0.01141784 Eh      7.16 kcal/mol
Translational entropy             ...      0.01810171 Eh     11.36 kcal/mol
-----------------------------------------------------------------------
Final entropy term                ...      0.03296107 Eh     20.68 kcal/mol

In case the symmetry of your molecule has not been determined correctly
or in case you have a reason to use a different symmetry number we print
out the resulting rotational entropy values for sn=1,12 :
 --------------------------------------------------------
|  sn= 1 | S(rot)=       0.01141784 Eh      7.16 kcal/mol|
|  sn= 2 | S(rot)=       0.01076338 Eh      6.75 kcal/mol|
|  sn= 3 | S(rot)=       0.01038055 Eh      6.51 kcal/mol|
|  sn= 4 | S(rot)=       0.01010893 Eh      6.34 kcal/mol|
|  sn= 5 | S(rot)=       0.00989824 Eh      6.21 kcal/mol|
|  sn= 6 | S(rot)=       0.00972609 Eh      6.10 kcal/mol|
|  sn= 7 | S(rot)=       0.00958055 Eh      6.01 kcal/mol|
|  sn= 8 | S(rot)=       0.00945447 Eh      5.93 kcal/mol|
|  sn= 9 | S(rot)=       0.00934326 Eh      5.86 kcal/mol|
|  sn=10 | S(rot)=       0.00924378 Eh      5.80 kcal/mol|
|  sn=11 | S(rot)=       0.00915379 Eh      5.74 kcal/mol|
|  sn=12 | S(rot)=       0.00907164 Eh      5.69 kcal/mol|
 --------------------------------------------------------

-------------------
GIBBS FREE ENERGY
-------------------

The Gibbs free energy is G = H - T*S

Total enthalpy                    ...    -27.07214900 Eh
Total entropy correction          ...     -0.03296107 Eh    -20.68 kcal/mol
-----------------------------------------------------------------------
Final Gibbs free energy         ...    -27.10511007 Eh

For completeness - the Gibbs free energy minus the electronic energy
G-E(el)                           ...      0.05091600 Eh     31.95 kcal/mol

                             ****ORCA TERMINATED NORMALLY****
TOTAL RUN TIME: 0 days 0 hours 6 minutes 8 seconds 166 msec
