                         Program Version 5.0.4 -  RELEASE  -
|  1> !freq
|  2>
|  3> * int 0 1
|  4>    O     0     0     0        0.00000        0.00000        0.00000
|  5>    H     1     0     0        0.96900        0.00000        0.00000
|  6>    H     1     2     0        1.50000      103.97800        0.00000
|  7> **                         ****END OF INPUT****

CARTESIAN COORDINATES (ANGSTROEM)
---------------------------------
  O      0.000000    0.000000    0.000000
  H      0.969000    0.000000    0.000000
  H     -0.362324    1.455583    0.000000

 Total Charge           Charge          ....    0
 Multiplicity           Mult            ....    1
 Number of Electrons    NEL             ....   10
 Basis Dimension        Dim             ....   24

ORBITAL ENERGIES
----------------

  NO   OCC          E(Eh)            E(eV)
   0   2.0000     -20.584091      -560.1216
   1   2.0000      -1.256408       -34.1886
   2   2.0000      -0.625628       -17.0242
   3   2.0000      -0.495796       -13.4913
   4   2.0000      -0.491600       -13.3771
   5   0.0000       0.075289         2.0487
   6   0.0000       0.219767         5.9802
   7   0.0000       0.612925        16.6785
   8   0.0000       0.834169        22.6989
   9   0.0000       1.163948        31.6726

MULLIKEN ATOMIC CHARGES
-----------------------
   0 O :   -0.445022
   1 H :    0.204370
   2 H :    0.240652
Sum of atomic charges:    0.0000000

LOEWDIN ATOMIC CHARGES
----------------------
   0 O :   -0.281298
   1 H :    0.070910
   2 H :    0.210388

  Mayer bond orders larger than 0.100000
B(  0-O ,  1-H ) :   0.9734 B(  0-O ,  2-H ) :   0.9336

FINAL SINGLE POINT ENERGY       -75.836569666173

DIPOLE MOMENT
-------------
                                X             Y             Z
Electronic contribution:      0.00795      -0.47654      -0.00000
Nuclear contribution   :      0.50497       1.21157       0.00000
                        -----------------------------------------
Total Dipole Moment    :      0.51292       0.73503      -0.00000
                        -----------------------------------------
Magnitude (a.u.)       :      0.89630
Magnitude (Debye)      :      2.27822

VIBRATIONAL FREQUENCIES
-----------------------

Scaling factor for frequencies =  1.000000000  (already applied!)

   0:         0.00 cm**-1
   1:         0.00 cm**-1
   2:         0.00 cm**-1
   3:         0.00 cm**-1
   4:         0.00 cm**-1
   5:         0.00 cm**-1
   6:     -1069.75 cm**-1 ***imaginary mode***
   7:      1490.63 cm**-1
   8:      3881.84 cm**-1

IR SPECTRUM
-----------

 Mode   freq       eps      Int      T**2         TX        TY        TZ
       cm**-1   L/(mol*cm) km/mol    a.u.
----------------------------------------------------------------------------
  7:   1490.63   0.010933   55.25  0.002289  (-0.037958 -0.029119  0.000000)
  8:   3881.84   0.011719   59.22  0.000942  (-0.028234  0.012038  0.000000)

--------------------------
THERMOCHEMISTRY AT 298.15K
--------------------------

Temperature         ... 298.15 K
Pressure            ... 1.00 atm
Total Mass          ... 18.02 AMU

Throughout the following assumptions are being made:
  (1) The electronic state is orbitally nondegenerate
  (2) There are no thermally accessible electronically excited states
  (3) Hindered rotations indicated by low frequency modes are not
      treated as such but are treated as vibrations and this may
      cause some error
  (4) All equations used are the standard statistical mechanics
      equations for an ideal gas
  (5) All vibrations are strictly harmonic

freq.    1490.63  E(vib)   ...       0.00
freq.    3881.84  E(vib)   ...       0.00

------------
INNER ENERGY
------------

The inner energy is: U= E(el) + E(ZPE) + E(vib) + E(rot) + E(trans)
    E(el)   - is the total energy from the electronic structure calculation
              = E(kin-el) + E(nuc-el) + E(el-el) + E(nuc-nuc)
    E(ZPE)  - the the zero temperature vibrational energy from the frequency calculation
    E(vib)  - the the finite temperature correction to E(ZPE) due to population
              of excited vibrational states
    E(rot)  - is the rotational thermal energy
    E(trans)- is the translational thermal energy

Summary of contributions to the inner energy U:
Electronic energy                ...    -75.83656967 Eh
Zero point energy                ...      0.01223938 Eh       7.68 kcal/mol
Thermal vibrational correction   ...      0.00000511 Eh       0.00 kcal/mol
Thermal rotational correction    ...      0.00141627 Eh       0.89 kcal/mol
Thermal translational correction ...      0.00141627 Eh       0.89 kcal/mol
-----------------------------------------------------------------------
Total thermal energy                    -75.82149263 Eh

Summary of corrections to the electronic energy:
(perhaps to be used in another calculation)
Total thermal correction                  0.00283765 Eh       1.78 kcal/mol
Non-thermal (ZPE) correction              0.01223938 Eh       7.68 kcal/mol
-----------------------------------------------------------------------
Total correction                          0.01507704 Eh       9.46 kcal/mol

--------
ENTHALPY
--------

The enthalpy is H = U + kB*T
                kB is Boltzmann's constant
Total free energy                 ...    -75.82149263 Eh
Thermal Enthalpy correction       ...      0.00094421 Eh       0.59 kcal/mol
-----------------------------------------------------------------------
Total Enthalpy                    ...    -75.82054842 Eh

Note: Rotational entropy computed according to Herzberg
Infrared and Raman Spectra, Chapter V,1, Van Nostrand Reinhold, 1945
Point Group:  Cs, Symmetry Number:   1
Rotational constants in cm-1:    21.508984     7.359916     5.483559

Vibrational entropy computed according to the QRRHO of S. Grimme
Chem.Eur.J. 2012 18 9955

-------
ENTROPY
-------

The entropy contributions are T*S = T*(S(el)+S(vib)+S(rot)+S(trans))
     S(el)   - electronic entropy
     S(vib)  - vibrational entropy
     S(rot)  - rotational entropy
     S(trans)- translational entropy
The entropies will be listed as multiplied by the temperature to get
units of energy

Electronic entropy                ...      0.00000000 Eh      0.00 kcal/mol
Vibrational entropy               ...      0.00000582 Eh      0.00 kcal/mol
Rotational entropy                ...      0.00631652 Eh      3.96 kcal/mol
Translational entropy             ...      0.01644380 Eh     10.32 kcal/mol
-----------------------------------------------------------------------
Final entropy term                ...      0.02276614 Eh     14.29 kcal/mol

In case the symmetry of your molecule has not been determined correctly
or in case you have a reason to use a different symmetry number we print
out the resulting rotational entropy values for sn=1,12 :
 --------------------------------------------------------
|  sn= 1 | S(rot)=       0.00631652 Eh      3.96 kcal/mol|
|  sn= 2 | S(rot)=       0.00566206 Eh      3.55 kcal/mol|
|  sn= 3 | S(rot)=       0.00527923 Eh      3.31 kcal/mol|
|  sn= 4 | S(rot)=       0.00500760 Eh      3.14 kcal/mol|
|  sn= 5 | S(rot)=       0.00479692 Eh      3.01 kcal/mol|
|  sn= 6 | S(rot)=       0.00462477 Eh      2.90 kcal/mol|
|  sn= 7 | S(rot)=       0.00447923 Eh      2.81 kcal/mol|
|  sn= 8 | S(rot)=       0.00435315 Eh      2.73 kcal/mol|
|  sn= 9 | S(rot)=       0.00424194 Eh      2.66 kcal/mol|
|  sn=10 | S(rot)=       0.00414246 Eh      2.60 kcal/mol|
|  sn=11 | S(rot)=       0.00405247 Eh      2.54 kcal/mol|
|  sn=12 | S(rot)=       0.00397032 Eh      2.49 kcal/mol|
 --------------------------------------------------------

-------------------
GIBBS FREE ENERGY
-------------------

The Gibbs free energy is G = H - T*S

Total enthalpy                    ...    -75.82054842 Eh
Total entropy correction          ...     -0.02276614 Eh    -14.29 kcal/mol
-----------------------------------------------------------------------
Final Gibbs free energy         ...    -75.84331456 Eh

For completeness - the Gibbs free energy minus the electronic energy
G-E(el)                           ...     -0.00674489 Eh     -4.23 kcal/mol

                             ****ORCA TERMINATED NORMALLY****
TOTAL RUN TIME: 0 days 0 hours 0 minutes 1 seconds 377 msec
