                         Program Version 5.0.4 -  RELEASE  -
|  1> !PM3 opt
|  2>
|  3>
|  4> %geom scan
|  5> 	B 0 5 = 3.0 , 1.2 ,15
|  6> end
|  7> end
|  8>
|  9>
| 10> *xyz -1 1
| 11> C         -1.55384       -0.43723        0.00000
| 12> Cl        -0.48384       -0.43723        0.00000
| 13> H         -1.91051       -1.20940        0.64919
| 14> H         -1.91051       -0.61336       -0.99331
| 15> H         -1.91051        0.51106        0.34413
| 16> F         -4.54939       -0.44897        0.08390
| 17> *
| 18>
| 19>                          ****END OF INPUT****
 Total Charge           Charge          ....   -1
 Multiplicity           Mult            ....    1
 Number of Electrons    NEL             ....   22
FINAL SINGLE POINT ENERGY       -33.144658592189
FINAL SINGLE POINT ENERGY       -33.571804088547
FINAL SINGLE POINT ENERGY       -33.751414009787
FINAL SINGLE POINT ENERGY       -33.821076744343
FINAL SINGLE POINT ENERGY       -33.851732921542
FINAL SINGLE POINT ENERGY       -33.863707616026
FINAL SINGLE POINT ENERGY       -33.867550793910
FINAL SINGLE POINT ENERGY       -33.868700232230
FINAL SINGLE POINT ENERGY       -33.869200162925
FINAL SINGLE POINT ENERGY       -33.869463119021
                    ***********************HURRAY********************
                    ***********************HURRAY********************
FINAL SINGLE POINT ENERGY       -33.965134529685
FINAL SINGLE POINT ENERGY       -33.965171111036
FINAL SINGLE POINT ENERGY       -33.965172810792
FINAL SINGLE POINT ENERGY       -33.965172865297
FINAL SINGLE POINT ENERGY       -33.929723503375
FINAL SINGLE POINT ENERGY       -33.930192269078
FINAL SINGLE POINT ENERGY       -33.930419191983
FINAL SINGLE POINT ENERGY       -33.930451524449
FINAL SINGLE POINT ENERGY       -33.930452725241

CARTESIAN COORDINATES (ANGSTROEM)
---------------------------------
  C     -2.564204   -0.440106    0.021145
  Cl     0.459003   -0.434737   -0.021104
  H     -2.138526   -1.220597    0.672003
  H     -2.164012   -0.617470   -0.989989
  H     -2.146786    0.520466    0.363285
  F     -3.764075   -0.442685    0.038569

 Multiplicity           Mult            ....    1
 Number of Electrons    NEL             ....   22
 Basis Dimension        Dim             ....   15

ORBITAL ENERGIES
----------------

  NO   OCC          E(Eh)            E(eV)
   0   2.0000      -1.732466       -47.1428
   1   2.0000      -1.072557       -29.1858
   2   2.0000      -0.624250       -16.9867
   3   2.0000      -0.565084       -15.3767
   4   2.0000      -0.565084       -15.3767
   5   2.0000      -0.520873       -14.1737
   6   2.0000      -0.292514        -7.9597
   7   2.0000      -0.292507        -7.9595
   8   2.0000      -0.137441        -3.7400
   9   2.0000      -0.137440        -3.7399
  10   2.0000      -0.136546        -3.7156
  11   0.0000       0.281758         7.6670
  12   0.0000       0.307233         8.3602
  13   0.0000       0.307255         8.3608
  14   0.0000       0.357760         9.7351

MULLIKEN ATOMIC CHARGES
-----------------------
   0 C :   -0.222180
   1 Cl:   -0.995894
   2 H :    0.115899
   3 H :    0.115707
   4 H :    0.115763
   5 F :   -0.129295
Sum of atomic charges:   -1.0000000

LOEWDIN ATOMIC CHARGES
----------------------
   0 C :   -0.017004
   1 Cl:   -0.992734
   2 H :    0.043663
   3 H :    0.043518
   4 H :    0.043560
   5 F :   -0.121003

  Mayer bond orders larger than 0.100000
B(  0-C ,  2-H ) :   2.8536 B(  0-C ,  3-H ) :   2.8537 B(  0-C ,  4-H ) :   2.8536
B(  0-C ,  5-F ) :   2.4345 B(  2-H ,  3-H ) :   0.1920 B(  2-H ,  4-H ) :   0.1920
B(  3-H ,  4-H ) :   0.1920

FINAL SINGLE POINT ENERGY       -33.930452748668

DIPOLE MOMENT
-------------
                                X             Y             Z
Electronic contribution:     29.93066       0.05211      -0.41671
Nuclear contribution   :    -22.44118      -0.04025       0.31417
                        -----------------------------------------
Total Dipole Moment    :      7.48948       0.01186      -0.10254
                        -----------------------------------------
Magnitude (a.u.)       :      7.49019
Magnitude (Debye)      :     19.03856

Rotational constants in cm-1:     5.348861     0.067980     0.067980
Rotational constants in MHz : 160354.824480  2037.987078  2037.986436

                             ****ORCA TERMINATED NORMALLY****
TOTAL RUN TIME: 0 days 0 hours 0 minutes 34 seconds 58 msec
