                         Program Version 5.0.4 -  RELEASE  -
|  1> !hf 3-21G opt numfreq
|  2> !PAL2
|  3>
|  4> %elprop Polar 1 end
|  5>
|  6> *int 0 1
|  7>    C     0     0     0        0.00000        0.00000        0.00000
|  8>    C     1     0     0        1.33579        0.00000        0.00000
|  9>    H     1     2     0        1.08549      121.05026        0.00000
| 10>    H     1     2     3        1.08549      121.05026      180.00000
| 11>    H     2     1     3        1.08549      121.05026        0.00000
| 12>    H     2     1     3        1.08549      121.05026      180.00000
| 13> **                         ****END OF INPUT****
 Total Charge           Charge          ....    0
 Multiplicity           Mult            ....    1
 Number of Electrons    NEL             ....   16
FINAL SINGLE POINT ENERGY       -77.599906761302
FINAL SINGLE POINT ENERGY       -77.600902434198
FINAL SINGLE POINT ENERGY       -77.600962243702
FINAL SINGLE POINT ENERGY       -77.600988078188
                    ***********************HURRAY********************

CARTESIAN COORDINATES (ANGSTROEM)
---------------------------------
  C      0.010441    0.000000    0.000000
  C      1.325349    0.000000    0.000000
  H     -0.557016    0.911432   -0.000000
  H     -0.557016   -0.911432   -0.000000
  H      1.892806    0.911432   -0.000000
  H      1.892806   -0.911432   -0.000000

 Multiplicity           Mult            ....    1
 Number of Electrons    NEL             ....   16
 Basis Dimension        Dim             ....   26

ORBITAL ENERGIES
----------------

  NO   OCC          E(Eh)            E(eV)
   0   2.0000     -11.166141      -303.8462
   1   2.0000     -11.165936      -303.8406
   2   2.0000      -1.038299       -28.2536
   3   2.0000      -0.788751       -21.4630
   4   2.0000      -0.646718       -17.5981
   5   2.0000      -0.590848       -16.0778
   6   2.0000      -0.498947       -13.5770
   7   2.0000      -0.379736       -10.3332
   8   0.0000       0.186655         5.0792
   9   0.0000       0.298732         8.1289
  10   0.0000       0.313181         8.5221
  11   0.0000       0.343750         9.3539
  12   0.0000       0.439441        11.9578

MULLIKEN ATOMIC CHARGES
-----------------------
   0 C :   -0.425357
   1 C :   -0.425357
   2 H :    0.212679
   3 H :    0.212679
   4 H :    0.212679
   5 H :    0.212679
Sum of atomic charges:   -0.0000000

LOEWDIN ATOMIC CHARGES
----------------------
   0 C :   -0.189469
   1 C :   -0.189469
   2 H :    0.094734
   3 H :    0.094734
   4 H :    0.094734
   5 H :    0.094734

  Mayer bond orders larger than 0.100000
B(  0-C ,  1-C ) :   1.9214 B(  0-C ,  2-H ) :   0.9414 B(  0-C ,  3-H ) :   0.9414
B(  1-C ,  4-H ) :   0.9414 B(  1-C ,  5-H ) :   0.9414

FINAL SINGLE POINT ENERGY       -77.600988197934

DIPOLE MOMENT
-------------
                                X             Y             Z
Electronic contribution:      0.00000       0.00000       0.00000
Nuclear contribution   :      0.00000      -0.00000      -0.00000
                        -----------------------------------------
Total Dipole Moment    :      0.00000      -0.00000      -0.00000
                        -----------------------------------------
Magnitude (a.u.)       :      0.00000
Magnitude (Debye)      :      0.00000

VIBRATIONAL FREQUENCIES
-----------------------

Scaling factor for frequencies =  1.000000000 (already applied!)

   0:         0.00 cm**-1
   1:         0.00 cm**-1
   2:         0.00 cm**-1
   3:         0.00 cm**-1
   4:         0.00 cm**-1
   5:         0.00 cm**-1
   6:       943.20 cm**-1
   7:      1114.78 cm**-1
   8:      1156.59 cm**-1
   9:      1165.63 cm**-1
  10:      1387.02 cm**-1
  11:      1521.85 cm**-1
  12:      1639.65 cm**-1
  13:      1841.47 cm**-1
  14:      3304.96 cm**-1
  15:      3326.46 cm**-1
  16:      3370.62 cm**-1
  17:      3402.19 cm**-1

IR SPECTRUM
-----------

 Mode   freq       eps      Int      T**2         TX        TY        TZ
       cm**-1   L/(mol*cm) km/mol    a.u.
----------------------------------------------------------------------------
  6:    943.20   0.000263    1.33  0.000087  ( 0.000000 -0.009333 -0.000000)
  7:   1114.78   0.026537  134.11  0.007429  (-0.000000  0.000000  0.086189)
  8:   1156.59   0.000000    0.00  0.000000  (-0.000000  0.000000  0.000000)
  9:   1165.63   0.000000    0.00  0.000000  (-0.000000 -0.000000  0.000000)
 10:   1387.02   0.000000    0.00  0.000000  ( 0.000000  0.000000 -0.000000)
 11:   1521.85   0.000000    0.00  0.000000  ( 0.000000  0.000000 -0.000000)
 12:   1639.65   0.001712    8.65  0.000326  ( 0.018050  0.000000 -0.000000)
 13:   1841.47   0.000000    0.00  0.000000  ( 0.000000 -0.000000  0.000000)
 14:   3304.96   0.003227   16.31  0.000305  (-0.017456  0.000000  0.000000)
 15:   3326.46   0.000000    0.00  0.000000  (-0.000000 -0.000000 -0.000000)
 16:   3370.62   0.000000    0.00  0.000000  ( 0.000000  0.000000  0.000000)
 17:   3402.19   0.005923   29.93  0.000543  (-0.000000  0.023308  0.000000)

--------------------------
THERMOCHEMISTRY AT 298.15K
--------------------------

Temperature         ... 298.15 K
Pressure            ... 1.00 atm
Total Mass          ... 28.05 AMU

Throughout the following assumptions are being made:
  (1) The electronic state is orbitally nondegenerate
  (2) There are no thermally accessible electronically excited states
  (3) Hindered rotations indicated by low frequency modes are not
      treated as such but are treated as vibrations and this may
      cause some error
  (4) All equations used are the standard statistical mechanics
      equations for an ideal gas
  (5) All vibrations are strictly harmonic

freq.     943.20  E(vib)   ...       0.03
freq.    1114.78  E(vib)   ...       0.01
freq.    1156.59  E(vib)   ...       0.01
freq.    1165.63  E(vib)   ...       0.01
freq.    1387.02  E(vib)   ...       0.00
freq.    1521.85  E(vib)   ...       0.00
freq.    1639.65  E(vib)   ...       0.00
freq.    1841.47  E(vib)   ...       0.00
freq.    3304.96  E(vib)   ...       0.00
freq.    3326.46  E(vib)   ...       0.00
freq.    3370.62  E(vib)   ...       0.00
freq.    3402.19  E(vib)   ...       0.00

------------
INNER ENERGY
------------

The inner energy is: U= E(el) + E(ZPE) + E(vib) + E(rot) + E(trans)
    E(el)   - is the total energy from the electronic structure calculation
              = E(kin-el) + E(nuc-el) + E(el-el) + E(nuc-nuc)
    E(ZPE)  - the the zero temperature vibrational energy from the frequency calculation
    E(vib)  - the the finite temperature correction to E(ZPE) due to population
              of excited vibrational states
    E(rot)  - is the rotational thermal energy
    E(trans)- is the translational thermal energy

Summary of contributions to the inner energy U:
Electronic energy                ...    -77.60098820 Eh
Zero point energy                ...      0.05507343 Eh      34.56 kcal/mol
Thermal vibrational correction   ...      0.00012475 Eh       0.08 kcal/mol
Thermal rotational correction    ...      0.00141627 Eh       0.89 kcal/mol
Thermal translational correction ...      0.00141627 Eh       0.89 kcal/mol
-----------------------------------------------------------------------
Total thermal energy                    -77.54295748 Eh

Summary of corrections to the electronic energy:
(perhaps to be used in another calculation)
Total thermal correction                  0.00295729 Eh       1.86 kcal/mol
Non-thermal (ZPE) correction              0.05507343 Eh      34.56 kcal/mol
-----------------------------------------------------------------------
Total correction                          0.05803072 Eh      36.41 kcal/mol

--------
ENTHALPY
--------

The enthalpy is H = U + kB*T
                kB is Boltzmann's constant
Total free energy                 ...    -77.54295748 Eh
Thermal Enthalpy correction       ...      0.00094421 Eh       0.59 kcal/mol
-----------------------------------------------------------------------
Total Enthalpy                    ...    -77.54201327 Eh

Note: Rotational entropy computed according to Herzberg
Infrared and Raman Spectra, Chapter V,1, Van Nostrand Reinhold, 1945
Point Group:  D2h, Symmetry Number:   4
Rotational constants in cm-1:     5.033005     1.025838     0.852151

Vibrational entropy computed according to the QRRHO of S. Grimme
Chem.Eur.J. 2012 18 9955

-------
ENTROPY
-------

The entropy contributions are T*S = T*(S(el)+S(vib)+S(rot)+S(trans))
     S(el)   - electronic entropy
     S(vib)  - vibrational entropy
     S(rot)  - rotational entropy
     S(trans)- translational entropy
The entropies will be listed as multiplied by the temperature to get
units of energy

Electronic entropy                ...      0.00000000 Eh      0.00 kcal/mol
Vibrational entropy               ...      0.00014842 Eh      0.09 kcal/mol
Rotational entropy                ...      0.00750248 Eh      4.71 kcal/mol
Translational entropy             ...      0.01707111 Eh     10.71 kcal/mol
-----------------------------------------------------------------------
Final entropy term                ...      0.02472201 Eh     15.51 kcal/mol

In case the symmetry of your molecule has not been determined correctly
or in case you have a reason to use a different symmetry number we print
out the resulting rotational entropy values for sn=1,12 :
 --------------------------------------------------------
|  sn= 1 | S(rot)=       0.00881139 Eh      5.53 kcal/mol|
|  sn= 2 | S(rot)=       0.00815693 Eh      5.12 kcal/mol|
|  sn= 3 | S(rot)=       0.00777410 Eh      4.88 kcal/mol|
|  sn= 4 | S(rot)=       0.00750248 Eh      4.71 kcal/mol|
|  sn= 5 | S(rot)=       0.00729179 Eh      4.58 kcal/mol|
|  sn= 6 | S(rot)=       0.00711965 Eh      4.47 kcal/mol|
|  sn= 7 | S(rot)=       0.00697410 Eh      4.38 kcal/mol|
|  sn= 8 | S(rot)=       0.00684802 Eh      4.30 kcal/mol|
|  sn= 9 | S(rot)=       0.00673681 Eh      4.23 kcal/mol|
|  sn=10 | S(rot)=       0.00663733 Eh      4.16 kcal/mol|
|  sn=11 | S(rot)=       0.00654734 Eh      4.11 kcal/mol|
|  sn=12 | S(rot)=       0.00646519 Eh      4.06 kcal/mol|
 --------------------------------------------------------

-------------------
GIBBS FREE ENERGY
-------------------

The Gibbs free energy is G = H - T*S

Total enthalpy                    ...    -77.54201327 Eh
Total entropy correction          ...     -0.02472201 Eh    -15.51 kcal/mol
-----------------------------------------------------------------------
Final Gibbs free energy         ...    -77.56673528 Eh

For completeness - the Gibbs free energy minus the electronic energy
G-E(el)                           ...      0.03425292 Eh     21.49 kcal/mol

                             ****ORCA TERMINATED NORMALLY****
TOTAL RUN TIME: 0 days 0 hours 1 minutes 10 seconds 380 msec
